Program Version,EnergyPlus, Version 9.6.0-4b123cf80f, YMD=2022.01.23 18:29
1,5,Environment Title[],Latitude[deg],Longitude[deg],Time Zone[],Elevation[m]
2,8,Day of Simulation[],Month[],Day of Month[],DST Indicator[1=yes 0=no],Hour[],StartMinute[],EndMinute[],DayType
3,5,Cumulative Day of Simulation[],Month[],Day of Month[],DST Indicator[1=yes 0=no],DayType  ! When Daily Report Variables Requested
4,2,Cumulative Days of Simulation[],Month[]  ! When Monthly Report Variables Requested
5,1,Cumulative Days of Simulation[] ! When Run Period Report Variables Requested
6,1,Calendar Year of Simulation[] ! When Annual Report Variables Requested
7,1,ZONE1_1_E88E189A,Zone People Total Heating Energy [J] !Hourly
8,1,ZONE2_2_876ACDA9,Zone People Total Heating Energy [J] !Hourly
167,1,ZONE1_1_E88E189A,Zone Lights Electricity Energy [J] !Hourly
168,1,ZONE2_2_876ACDA9,Zone Lights Electricity Energy [J] !Hourly
267,1,ZONE1_1_E88E189A,Zone Electric Equipment Electricity Energy [J] !Hourly
268,1,ZONE2_2_876ACDA9,Zone Electric Equipment Electricity Energy [J] !Hourly
269,1,ZONE1_1_E88E189A,Zone Windows Total Transmitted Solar Radiation Energy [J] !Hourly
270,1,ZONE2_2_876ACDA9,Zone Windows Total Transmitted Solar Radiation Energy [J] !Hourly
271,1,ZONE1_1_E88E189A,Zone Infiltration Total Heat Loss Energy [J] !Hourly
272,1,ZONE1_1_E88E189A,Zone Infiltration Total Heat Gain Energy [J] !Hourly
273,1,ZONE2_2_876ACDA9,Zone Infiltration Total Heat Loss Energy [J] !Hourly
274,1,ZONE2_2_876ACDA9,Zone Infiltration Total Heat Gain Energy [J] !Hourly
717,1,ZONE1_1_E88E189A IDEAL LOADS AIR SYSTEM,Zone Ideal Loads Supply Air Total Heating Energy [J] !Hourly
730,1,ZONE1_1_E88E189A IDEAL LOADS AIR SYSTEM,Zone Ideal Loads Supply Air Total Cooling Energy [J] !Hourly
779,1,ZONE1_1_E88E189A IDEAL LOADS AIR SYSTEM,Zone Ideal Loads Zone Total Heating Energy [J] !Hourly
780,1,ZONE1_1_E88E189A IDEAL LOADS AIR SYSTEM,Zone Ideal Loads Zone Total Cooling Energy [J] !Hourly
781,1,ZONE2_2_876ACDA9 IDEAL LOADS AIR SYSTEM,Zone Ideal Loads Supply Air Total Heating Energy [J] !Hourly
782,1,ZONE2_2_876ACDA9 IDEAL LOADS AIR SYSTEM,Zone Ideal Loads Supply Air Total Cooling Energy [J] !Hourly
783,1,ZONE2_2_876ACDA9 IDEAL LOADS AIR SYSTEM,Zone Ideal Loads Zone Total Heating Energy [J] !Hourly
784,1,ZONE2_2_876ACDA9 IDEAL LOADS AIR SYSTEM,Zone Ideal Loads Zone Total Cooling Energy [J] !Hourly
883,1,2019::MIDRISEAPARTMENT::APARTMENT_SHW..ZONE2_2_876ACDA9,Water Use Equipment Heating Energy [J] !Hourly
922,1,2019::MIDRISEAPARTMENT::APARTMENT_SHW..ZONE1_1_E88E189A,Water Use Equipment Heating Energy [J] !Hourly
End of Data Dictionary
1,RUN PERIOD 1,  47.47,-122.32,  -8.00, 122.00
2,1, 1, 1, 0, 1, 0.00,60.00,Sunday
7,270192.3506237688
8,270192.3506237688
167,7342.407221081856
168,7342.407221081856
267,301551.40867515065
268,301551.40867515065
269,0.0
270,0.0
271,4145757.0366816646
272,0.0
273,2949240.509353923
274,0.0
717,5964589.568186946
730,0.0
779,5383592.401708301
780,57618.23696763541
781,4352521.921465017
782,0.0
783,3771790.4653368797
784,70719.2676665686
883,62497.128429918426
922,62497.128429918426
2,1, 1, 1, 0, 2, 0.00,60.00,Sunday
7,270192.3506237688
8,270192.3506237688
167,7342.407221081856
168,7342.407221081856
267,274746.83901513723
268,274746.83901513723
269,0.0
270,0.0
271,4017984.2668027882
272,0.0
273,2841397.734288657
274,0.0
717,6137300.599497754
730,0.0
779,5539657.558549267
780,15501.860359561442
781,4487714.631915142
782,0.0
783,3889774.5495034843
784,25417.25121756358
883,31248.564214959213
922,31248.564214959213
2,1, 1, 1, 0, 3, 0.00,60.00,Sunday
7,270192.3506237688
8,270192.3506237688
167,7342.407221081856
168,7342.407221081856
267,261344.55418513058
268,261344.55418513058
269,0.0
270,0.0
271,3968252.0343777584
272,0.0
273,2781643.6331465337
274,0.0
717,6169237.29797472
730,0.0
779,5570691.949690404
780,4601.969091058163
781,4513031.744337622
782,0.0
783,3914565.4033549833
784,8497.478177323228
883,7812.141053739803
922,7812.141053739803
2,1, 1, 1, 0, 4, 0.00,60.00,Sunday
7,270192.3506237688
8,270192.3506237688
167,7342.407221081856
168,7342.407221081856
267,254643.41177012716
268,254643.41177012716
269,0.0
270,0.0
271,3857367.8972204635
272,0.0
273,2698234.5025535263
274,0.0
717,6089751.74421709
730,0.0
779,5504451.752639942
780,1013.7067182368355
781,4452596.567232598
782,0.0
783,3866553.2525252956
784,2614.8582974680266
883,7812.141053739803
922,7812.141053739803
2,1, 1, 1, 0, 5, 0.00,60.00,Sunday
7,270192.3506237688
8,270192.3506237688
167,22027.22101439552
168,22027.22101439552
267,254643.41177012716
268,254643.41177012716
269,0.0
270,0.0
271,3718727.6670141043
272,0.0
273,2597912.570390987
274,0.0
717,5936207.06130261
730,0.0
779,5370816.089462517
780,0.0
781,4333383.722830581
782,0.0
783,3766799.255139639
784,159.67135622604474
883,31248.564214959213
922,31248.564214959213
2,1, 1, 1, 0, 6, 0.00,60.00,Sunday
7,270192.3506237688
8,270192.3506237688
167,47725.64596375699
168,47725.64596375699
267,288149.1238451439
268,288149.1238451439
269,0.0
270,0.0
271,3465568.3891058373
272,0.0
273,2426923.210032808
274,0.0
717,5539392.460375942
730,0.0
779,5015936.098414802
780,3189.1068205815372
781,4021468.4092502748
782,0.0
783,3497577.71680643
784,4896.661735657926
883,210927.80845097473
922,210927.80845097473
2,1, 1, 1, 0, 7, 0.00,60.00,Sunday
7,270192.3506237688
8,270192.3506237688
167,51396.8492498729
168,51396.8492498729
267,361861.6904101808
268,361861.6904101808
269,0.0
270,0.0
271,3599302.3735223846
272,0.0
273,2547049.246308748
274,0.0
717,5393806.745128667
730,0.0
779,4872092.053103274
780,19184.503486791073
781,3878235.835044408
782,0.0
783,3356665.071121184
784,26280.977076778552
883,734341.2590515416
922,734341.2590515416
2,1, 1, 1, 0, 8, 0.00,60.00,Sunday
7,229663.4980302035
8,229663.4980302035
167,47725.64596375699
168,47725.64596375699
267,435574.25697521755
268,435574.25697521755
269,0.0
270,0.0
271,3930250.2002971354
272,0.0
273,2825367.049379786
274,0.0
717,5490510.87820464
730,0.0
779,4953028.429522724
780,61087.975072890185
781,3938074.3344714204
782,0.0
783,3400952.541113178
784,78870.3326595079
883,781134.2124232892
922,781134.2124232892
2,1, 1, 1, 0, 9, 0.00,60.00,Sunday
7,105375.01674326984
8,105375.01674326984
167,17413.771898240615
168,19202.673423369164
267,442275.39939022093
268,442275.39939022093
269,71258.44596481997
270,48718.89398568329
271,3846993.2640258684
272,0.0
273,2792252.7486408465
274,0.0
717,5368855.806861516
730,0.0
779,4854902.243953431
780,79264.92183584791
781,3868607.4983777236
782,0.0
783,3355148.5720507274
784,103653.31702358415
883,749965.5411590211
922,749965.5411590211
2,1, 1, 1, 0,10, 0.00,60.00,Sunday
7,67548.0876559422
8,67548.0876559422
167,5160.473236756303
168,7625.797479078367
267,448976.5418052242
268,448976.5418052242
269,236934.1753098417
270,184409.9460924607
271,3648693.072155268
272,0.0
273,2651204.357218909
274,0.0
717,5198107.064420769
730,0.0
779,4700285.015386623
780,63788.04430436854
781,3755191.589772499
782,0.0
783,3257875.619097113
784,88740.58417153095
883,656219.8485141435
922,656219.8485141435
2,1, 1, 1, 0,11, 0.00,60.00,Sunday
7,67548.0876559422
8,67548.0876559422
167,4405.444137994099
168,4506.793779356394
267,462378.82663523086
268,462378.82663523086
269,332623.5807197967
270,262087.9862355627
271,3486517.805146371
272,0.0
273,2526290.1380000557
274,0.0
717,4929030.799570472
730,0.0
779,4454276.3673758255
780,63692.78375743229
781,3563639.2785625346
782,0.0
783,3089328.7930127033
784,85581.87694217952
883,593722.7200842252
922,593722.7200842252
2,1, 1, 1, 0,12, 0.00,60.00,Sunday
7,67548.0876559422
8,67548.0876559422
167,4405.444137994099
168,7115.171409689093
267,469079.9690502343
268,469079.9690502343
269,229484.85011106048
270,173602.99725045555
271,3251603.177075796
272,0.0
273,2355122.871187434
274,0.0
717,4721169.743822864
730,0.0
779,4273292.430960003
780,56625.57919338469
781,3419209.9032826284
782,0.0
783,2971751.6907506636
784,77289.60786408343
883,476540.604278128
922,476540.604278128
2,1, 1, 1, 0,13, 0.00,60.00,Sunday
7,67548.0876559422
8,67548.0876559422
167,4405.444137994099
168,5856.5264056030755
267,462378.82663523086
268,462378.82663523086
269,267823.1496997468
270,191561.04340551206
271,3565526.601518947
272,0.0
273,2555140.4961397853
274,0.0
717,5215136.098045557
730,0.0
779,4705083.361852382
780,35869.70431007371
781,3803306.266327187
782,0.0
783,3293588.8005677257
784,52400.44252230341
883,414043.4758482096
922,414043.4758482096
2,1, 1, 1, 0,14, 0.00,60.00,Sunday
7,67548.0876559422
8,67548.0876559422
167,4405.444137994099
168,4405.444137994099
267,442275.39939022093
268,442275.39939022093
269,355125.6381006639
270,232221.52455712704
271,3874364.1264740685
272,0.0
273,2765599.683740156
274,0.0
717,5479133.927954788
730,0.0
779,4932719.219448434
780,49344.12695725818
781,4030059.2745270273
782,0.0
783,3483936.585816893
784,63742.36288463987
883,367170.6295257708
922,367170.6295257708
2,1, 1, 1, 0,15, 0.00,60.00,Sunday
7,67548.0876559422
8,67548.0876559422
167,4489.19928115168
168,6493.278089418131
267,435574.25697521755
268,435574.25697521755
269,254716.31937745912
270,168627.38965074552
271,3759852.352483194
272,0.0
273,2683643.967947407
274,0.0
717,5411416.233679074
730,0.0
779,4873955.359335177
780,40300.82290563355
781,3992092.8778146226
782,0.0
783,3454926.573092474
784,54824.77972596054
883,320297.78320333187
922,320297.78320333187
2,1, 1, 1, 0,16, 0.00,60.00,Sunday
7,67548.0876559422
8,67548.0876559422
167,15486.073351526855
168,19328.07298438366
267,455677.68422022765
268,455677.68422022765
269,123675.61040594203
270,90199.81960893453
271,3825874.3413014924
272,0.0
273,2721482.141184017
274,0.0
717,5530708.072275827
730,0.0
779,4980588.392427125
780,34223.26509895079
781,4070350.59083807
782,0.0
783,3520481.8909695894
784,46598.00480857287
883,367170.6295257708
922,367170.6295257708
2,1, 1, 1, 0,17, 0.00,60.00,Sunday
7,81057.70518713065
8,81057.70518713065
167,49572.384422684336
168,50268.52155628327
267,536091.3932002677
268,536091.3932002677
269,15576.138799075574
270,12273.192663444886
271,3873071.009458538
272,0.0
273,2753224.222785222
274,0.0
717,5574657.67179543
730,0.0
779,5015325.193077219
780,28249.74630475576
781,4079810.4265597644
782,0.0
783,3520722.353246959
784,40300.32210306874
883,429667.75795568933
922,429667.75795568933
2,1, 1, 1, 0,18, 0.00,60.00,Sunday
7,140500.0223243598
8,140500.0223243598
167,73424.07026426842
168,73424.07026426842
267,670114.2415003347
268,670114.2415003347
269,0.0
270,0.0
271,3960222.9376019207
272,0.0
273,2822598.9714121316
274,0.0
717,5435688.3994352585
730,0.0
779,4876508.2913084095
780,40433.158110024626
781,3936391.968508263
782,0.0
783,3377479.51851216
784,53630.22544672779
883,570286.2969230056
922,570286.2969230056
2,1, 1, 1, 0,19, 0.00,60.00,Sunday
7,235067.34504267893
8,235067.34504267893
167,99122.4952136299
168,99122.4952136299
267,670114.2415003347
268,670114.2415003347
269,0.0
270,0.0
271,4102962.23825238
272,0.0
273,2947844.4601138947
274,0.0
717,5339352.992732643
730,0.0
779,4780829.142295258
780,65421.89355365572
781,3839280.782478263
782,0.0
783,3281132.613159435
784,83945.108241513
883,671844.1306216231
922,671844.1306216231
2,1, 1, 1, 0,20, 0.00,60.00,Sunday
7,235067.34504267893
8,235067.34504267893
167,117478.51294190952
168,117478.51294190952
267,623206.2445953113
268,623206.2445953113
269,0.0
270,0.0
271,4115732.0949102985
272,0.0
273,2972715.581681024
274,0.0
717,5364001.28671059
730,0.0
779,4805637.688640568
780,67991.22232374802
781,3859542.744540825
782,0.0
783,3301644.939794125
784,90957.48094534175
883,640595.5664066637
922,640595.5664066637
2,1, 1, 1, 0,21, 0.00,60.00,Sunday
7,235067.34504267893
8,235067.34504267893
167,117478.51294190952
168,117478.51294190952
267,596401.6749352979
268,596401.6749352979
269,0.0
270,0.0
271,4149095.538777753
272,0.0
273,2991815.161000793
274,0.0
717,5490777.512497857
730,0.0
779,4921765.169251557
780,60220.07651465105
781,3956555.914392813
782,0.0
783,3387997.9090738916
784,82621.51899852253
883,585910.5790304852
922,585910.5790304852
2,1, 1, 1, 0,22, 0.00,60.00,Sunday
7,270192.3506237688
8,270192.3506237688
167,80766.47748535027
168,80766.47748535027
267,569597.1052752845
268,569597.1052752845
269,0.0
270,0.0
271,4103842.250152322
272,0.0
273,2952291.474423172
274,0.0
717,5510992.027201865
730,0.0
779,4944917.69757794
780,56946.15693815754
781,3974340.8681472964
782,0.0
783,3408685.51526154
784,77604.09178479594
883,476540.60427812795
922,476540.60427812795
2,1, 1, 1, 0,23, 0.00,60.00,Sunday
7,270192.3506237688
8,270192.3506237688
167,44054.44202879104
168,44054.44202879104
267,475781.1114652377
268,475781.1114652377
269,0.0
270,0.0
271,4011779.269397817
272,0.0
273,2878100.881210251
274,0.0
717,5555987.790896386
730,0.0
779,4997271.126652705
780,49613.545169806675
781,4023977.4793404285
782,0.0
783,3465636.2970279297
784,68126.93878776308
883,414043.4758482096
922,414043.4758482096
2,1, 1, 1, 0,24, 0.00,60.00,Sunday
7,270192.3506237688
8,270192.3506237688
167,18356.017728279618
168,18356.017728279618
267,388666.2600701941
268,388666.2600701941
269,0.0
270,0.0
271,3944569.8701012684
272,0.0
273,2817043.594782067
274,0.0
717,5680220.892142909
730,0.0
779,5121307.068367084
780,39511.00880238237
781,4136139.7614646335
782,0.0
783,3577543.635377773
784,55175.31080692924
883,226552.09055845428
922,226552.09055845428
2,2, 1, 2, 0, 1, 0.00,60.00,Monday
7,270192.3506237688
8,270192.3506237688
167,7342.407221081856
168,7342.407221081856
267,301551.40867515065
268,301551.40867515065
269,0.0
270,0.0
271,3787245.611269268
272,0.0
273,2687431.605112167
274,0.0
717,5693026.261600069
730,0.0
779,5146559.49262665
780,29771.74587570312
781,4165016.3354694718
782,0.0
783,3618778.261762986
784,41047.72254373251
883,62511.84854822745
922,62511.84854822745
2,2, 1, 2, 0, 2, 0.00,60.00,Monday
7,270192.3506237688
8,270192.3506237688
167,7342.407221081856
168,7342.407221081856
267,274746.83901513723
268,274746.83901513723
269,0.0
270,0.0
271,3714797.6697418476
272,0.0
273,2616985.7903674957
274,0.0
717,5777490.80831027
730,0.0
779,5227032.611895224
780,10926.619892436838
781,4232824.380370473
782,0.0
783,3682506.1967906556
784,17830.04856605646
883,31255.924274113724
922,31255.924274113724
2,2, 1, 2, 0, 3, 0.00,60.00,Monday
7,270192.3506237688
8,270192.3506237688
167,7342.407221081856
168,7342.407221081856
267,261344.55418513058
268,261344.55418513058
269,0.0
270,0.0
271,3761584.1212121886
272,0.0
273,2637664.440295387
274,0.0
717,5887379.612385694
730,0.0
779,5327827.209927115
780,7645.133174000284
781,4316365.599475592
782,0.0
783,3756889.142847642
784,11389.69433475454
883,7813.981068528431
922,7813.981068528431
2,2, 1, 2, 0, 4, 0.00,60.00,Monday
7,270192.3506237688
8,270192.3506237688
167,7342.407221081856
168,7342.407221081856
267,254643.41177012716
268,254643.41177012716
269,0.0
270,0.0
271,3667488.741389897
272,0.0
273,2568834.5727323554
274,0.0
717,5803302.501403097
730,0.0
779,5256262.905152808
780,6549.0675342668055
781,4253449.95384656
782,0.0
783,3706469.4488309417
784,9462.601305064822
883,7813.981068528431
922,7813.981068528431
2,2, 1, 2, 0, 5, 0.00,60.00,Monday
7,270192.3506237688
8,270192.3506237688
167,22027.22101439552
168,22027.22101439552
267,254643.41177012716
268,254643.41177012716
269,0.0
270,0.0
271,3706028.4326687492
272,0.0
273,2596246.933117952
274,0.0
717,5832215.9922718285
730,0.0
779,5281644.023803576
780,9134.953726995582
781,4271070.889393538
782,0.0
783,3720556.4743556445
784,11972.665003620137
883,31255.924274113724
922,31255.924274113724
2,2, 1, 2, 0, 6, 0.00,60.00,Monday
7,270192.3506237688
8,270192.3506237688
167,47725.64596375699
168,47725.64596375699
267,288149.1238451439
268,288149.1238451439
269,0.0
270,0.0
271,3819142.0909063835
272,0.0
273,2683553.277845247
274,0.0
717,5857357.217064365
730,0.0
779,5297955.473211396
780,15341.789179536863
781,4274683.432552932
782,0.0
783,3715368.336331421
784,19614.009955160032
883,210977.48885026766
922,210977.48885026766
2,2, 1, 2, 0, 7, 0.00,60.00,Monday
7,270192.3506237688
8,270192.3506237688
167,51396.8492498729
168,51396.8492498729
267,361861.6904101808
268,361861.6904101808
269,0.0
270,0.0
271,4001149.74365528
272,0.0
273,2841475.0816450575
274,0.0
717,5731540.08643049
730,0.0
779,5172614.819713656
780,38834.82050446901
781,4147197.7840844113
782,0.0
783,3588472.859284826
784,48712.81585977121
883,734514.2204416724
922,734514.2204416724
2,2, 1, 2, 0, 8, 0.00,60.00,Monday
7,229663.4980302035
8,229663.4980302035
167,47725.64596375699
168,47725.64596375699
267,435574.25697521755
268,435574.25697521755
269,0.0
270,0.0
271,4062753.261750418
272,0.0
273,2928671.526603909
274,0.0
717,5579998.177540936
730,0.0
779,5034168.147520204
780,66450.99795774717
781,4020968.3477846365
782,0.0
783,3475550.3953936948
784,86768.76754375733
883,781318.1950847484
922,781318.1950847484
2,2, 1, 2, 0, 9, 0.00,60.00,Monday
7,105375.01674326984
8,105375.01674326984
167,16599.766466635818
168,18701.502442502704
267,442275.39939022093
268,442275.39939022093
269,73290.71456477162
270,53890.29628900766
271,4011902.229941467
272,0.0
273,2907147.519500731
274,0.0
717,5567794.796973352
730,0.0
779,5031007.891583763
780,70792.7277038792
781,4031743.150033141
782,0.0
783,3495450.905091995
784,95182.2996877786
883,750142.1825787292
922,750142.1825787292
2,2, 1, 2, 0,10, 0.00,60.00,Monday
7,67548.0876559422
8,67548.0876559422
167,4762.389404014728
168,6821.170554400136
267,448976.5418052242
268,448976.5418052242
269,251160.14498238638
270,194967.86735465025
271,3973877.499201768
272,0.0
273,2877019.8322173986
274,0.0
717,5531833.726859048
730,0.0
779,4994946.925542578
780,65867.29065458216
781,4019716.7296523545
782,0.0
783,3483318.0010649683
784,89932.05062651295
883,656374.4097563882
922,656374.4097563882
2,2, 1, 2, 0,11, 0.00,60.00,Monday
7,67548.0876559422
8,67548.0876559422
167,4405.444137994099
168,4405.444137994099
267,462378.82663523086
268,462378.82663523086
269,410363.1138462602
270,327124.0665291649
271,3768090.680887851
272,0.0
273,2729198.0837068795
274,0.0
717,5160504.685190497
730,0.0
779,4657474.1000965405
780,73503.75252772206
781,3751794.91497105
782,0.0
783,3249226.7819194673
784,96305.26700522812
883,593862.5612081607
922,593862.5612081607
2,2, 1, 2, 0,12, 0.00,60.00,Monday
7,67548.0876559422
8,67548.0876559422
167,4405.444137994099
168,4405.444137994099
267,469079.9690502343
268,469079.9690502343
269,486547.06514044234
270,376269.7647866029
271,3490026.884570166
272,0.0
273,2533465.0440754616
274,0.0
717,4779157.2470809305
730,0.0
779,4312917.2418246735
780,72546.46496396413
781,3484544.4253835133
782,0.0
783,3018768.2495238455
784,95415.8908338381
883,476652.8451802343
922,476652.8451802343
2,2, 1, 2, 0,13, 0.00,60.00,Monday
7,67548.0876559422
8,67548.0876559422
167,4405.444137994099
168,4803.161162547378
267,462378.82663523086
268,462378.82663523086
269,295107.6783090087
270,215769.60902810507
271,3357848.4833843154
272,0.0
273,2414022.452964917
274,0.0
717,4929544.850116679
730,0.0
779,4448165.776444421
780,27584.29274376617
781,3614056.509653803
782,0.0
783,3133042.5181511994
784,45584.91900147558
883,414140.99663200683
922,414140.99663200683
2,2, 1, 2, 0,14, 0.00,60.00,Monday
7,67548.0876559422
8,67548.0876559422
167,4405.444137994099
168,5067.660702623443
267,442275.39939022093
268,442275.39939022093
269,275360.6595320548
270,193908.11556675943
271,3434756.203659633
272,0.0
273,2449070.488193537
274,0.0
717,4998091.514669423
730,0.0
779,4510813.367878252
780,36328.35090939302
781,3680430.1206586896
782,0.0
783,3193401.4740707837
784,48630.1292034402
883,367257.1102208362
922,367257.1102208362
2,2, 1, 2, 0,15, 0.00,60.00,Monday
7,67548.0876559422
8,67548.0876559422
167,4405.444137994099
168,5729.211997354431
267,435574.25697521755
268,435574.25697521755
269,276472.37979780545
270,181964.1975544325
271,3390709.6905943407
272,0.0
273,2415598.675714261
274,0.0
717,5004338.865328696
730,0.0
779,4513835.523903829
780,27008.806514986376
781,3703608.7735323547
782,0.0
783,3213353.7849695743
784,39254.014366893876
883,320373.2238096656
922,320373.2238096656
2,2, 1, 2, 0,16, 0.00,60.00,Monday
7,67548.0876559422
8,67548.0876559422
167,12923.384067501594
168,17640.304196785084
267,455677.68422022765
268,455677.68422022765
269,170594.3808422328
270,122576.68450691405
271,3482020.183653432
272,0.0
273,2476078.111980167
274,0.0
717,5052913.584243885
730,0.0
779,4555113.922457316
780,35134.929786847075
781,3735306.90516734
782,0.0
783,3237725.431551179
784,45892.84686905873
883,367257.1102208362
922,367257.1102208362
2,2, 1, 2, 0,17, 0.00,60.00,Monday
7,81057.70518713065
8,81057.70518713065
167,49185.13458046636
168,50019.85448803638
267,536091.3932002677
268,536091.3932002677
269,20818.66648126262
270,16773.93242625983
271,3343954.1966092326
272,0.0
273,2388248.682912921
274,0.0
717,4828813.352320408
730,0.0
779,4354143.801472768
780,38065.23511489044
781,3543635.184401021
782,0.0
783,3069225.473653348
784,50876.8290930162
883,429768.9587690638
922,429768.9587690638
2,2, 1, 2, 0,18, 0.00,60.00,Monday
7,140500.0223243598
8,140500.0223243598
167,73424.07026426842
168,73424.07026426842
267,670114.2415003347
268,670114.2415003347
269,0.0
270,0.0
271,3218336.553293178
272,0.0
273,2310443.2899277275
274,0.0
717,4458635.680099449
730,0.0
779,4011040.954886944
780,46262.570517399305
781,3227837.253391153
782,0.0
783,2780540.4265902173
784,60950.655598300014
883,570420.6180025755
922,570420.6180025755
2,2, 1, 2, 0,19, 0.00,60.00,Monday
7,235067.34504267893
8,235067.34504267893
167,99122.4952136299
168,99122.4952136299
267,670114.2415003347
268,670114.2415003347
269,0.0
270,0.0
271,3303643.826638072
272,0.0
273,2387558.0109772114
274,0.0
717,4369927.696175711
730,0.0
779,3919539.531157244
780,56404.60764264808
781,3136947.0712938355
782,0.0
783,2686936.9269956574
784,75043.17799523089
883,672002.371893445
922,672002.371893445
2,2, 1, 2, 0,20, 0.00,60.00,Monday
7,235067.34504267893
8,235067.34504267893
167,117478.51294190952
168,117478.51294190952
267,623206.2445953113
268,623206.2445953113
269,0.0
270,0.0
271,3443330.5528739914
272,0.0
273,2494483.5363999023
274,0.0
717,4537340.34442835
730,0.0
779,4066861.203818982
780,57841.96798375474
781,3264711.6710370407
782,0.0
783,2794664.4871558375
784,79139.89012146214
883,640746.4476193312
922,640746.4476193312
2,2, 1, 2, 0,21, 0.00,60.00,Monday
7,235067.34504267893
8,235067.34504267893
167,117478.51294190952
168,117478.51294190952
267,596401.6749352979
268,596401.6749352979
269,0.0
270,0.0
271,3620261.5430645375
272,0.0
273,2613930.827788419
274,0.0
717,4812833.358695855
730,0.0
779,4310059.420241412
780,51252.12415504448
781,3474468.1240611644
782,0.0
783,2972114.014894115
784,71952.09452479979
883,586048.5801396322
922,586048.5801396322
2,2, 1, 2, 0,22, 0.00,60.00,Monday
7,270192.3506237688
8,270192.3506237688
167,80766.47748535027
168,80766.47748535027
267,569597.1052752845
268,569597.1052752845
269,0.0
270,0.0
271,3785553.6177891255
272,0.0
273,2723166.7970746877
274,0.0
717,5052958.182394784
730,0.0
779,4523185.705581744
780,51550.22097325386
781,3658147.2093618996
782,0.0
783,3128765.279380111
784,70806.39980038397
883,476652.8451802343
922,476652.8451802343
2,2, 1, 2, 0,23, 0.00,60.00,Monday
7,270192.3506237688
8,270192.3506237688
167,44054.44202879104
168,44054.44202879104
267,475781.1114652377
268,475781.1114652377
269,0.0
270,0.0
271,3801216.0981332716
272,0.0
273,2727094.478695175
274,0.0
717,5201884.6665478945
730,0.0
779,4664548.6334878765
780,47836.25147377165
781,3787186.680652334
782,0.0
783,3250211.0609117793
784,65606.67687709429
883,414140.99663200683
922,414140.99663200683
2,2, 1, 2, 0,24, 0.00,60.00,Monday
7,270192.3506237688
8,270192.3506237688
167,18356.017728279618
168,18356.017728279618
267,388666.2600701941
268,388666.2600701941
269,0.0
270,0.0
271,3691893.1159007214
272,0.0
273,2641723.753626
274,0.0
717,5223572.783271445
730,0.0
779,4696776.284755265
780,46292.75831458144
781,3823765.482166996
782,0.0
783,3297291.9077766957
784,62214.7533685587
883,226605.4509873245
922,226605.4509873245
2,3, 1, 3, 0, 1, 0.00,60.00,Tuesday
7,270192.3506237688
8,270192.3506237688
167,7342.407221081856
168,7342.407221081856
267,301551.40867515065
268,301551.40867515065
269,0.0
270,0.0
271,3488365.3767457614
272,0.0
273,2476981.7120766914
274,0.0
717,5265918.9379814975
730,0.0
779,4746042.282218526
780,20593.338654750507
781,3873893.842150557
782,0.0
783,3354250.9426039187
784,32118.84889692533
883,62526.2338621333
922,62526.2338621333
2,3, 1, 3, 0, 2, 0.00,60.00,Tuesday
7,270192.3506237688
8,270192.3506237688
167,7342.407221081856
168,7342.407221081856
267,274746.83901513723
268,274746.83901513723
269,0.0
270,0.0
271,3154043.083306386
272,0.0
273,2217153.238241519
274,0.0
717,5020832.533669341
730,0.0
779,4536060.504581229
780,2233.7704731211034
781,3694951.832032205
782,0.0
783,3210196.022689973
784,7257.89349778513
883,31263.11693106665
922,31263.11693106665
2,3, 1, 3, 0, 3, 0.00,60.00,Tuesday
7,270192.3506237688
8,270192.3506237688
167,7342.407221081856
168,7342.407221081856
267,261344.55418513058
268,261344.55418513058
269,0.0
270,0.0
271,3083885.511653936
272,0.0
273,2160512.7907448374
274,0.0
717,4939793.997011992
730,0.0
779,4467806.57223168
780,6287.227476653743
781,3634353.335525778
782,0.0
783,3162420.1774296835
784,8962.883485185579
883,7815.779232766662
922,7815.779232766662
2,3, 1, 3, 0, 4, 0.00,60.00,Tuesday
7,270192.3506237688
8,270192.3506237688
167,7342.407221081856
168,7342.407221081856
267,254643.41177012716
268,254643.41177012716
269,0.0
270,0.0
271,3078309.8221021956
272,0.0
273,2150766.8870346956
274,0.0
717,5034349.492165041
730,0.0
779,4560540.433307428
780,289.9502155889877
781,3704282.7736574863
782,0.0
783,3229208.3572807703
784,746.0715150504484
883,7815.779232766662
922,7815.779232766662
2,3, 1, 3, 0, 5, 0.00,60.00,Tuesday
7,270192.3506237688
8,270192.3506237688
167,22027.22101439552
168,22027.22101439552
267,254643.41177012716
268,254643.41177012716
269,0.0
270,0.0
271,3150757.8786712848
272,0.0
273,2194905.816819628
274,0.0
717,5127750.541845232
730,0.0
779,4644076.964234089
780,0.0
781,3770741.480245159
782,0.0
783,3287204.326365131
784,0.0
883,31263.11693106665
922,31263.11693106665
2,3, 1, 3, 0, 6, 0.00,60.00,Tuesday
7,270192.3506237688
8,270192.3506237688
167,47725.64596375699
168,47725.64596375699
267,288149.1238451439
268,288149.1238451439
269,0.0
270,0.0
271,3310799.397519345
272,0.0
273,2318956.5059188055
274,0.0
717,5140030.1718511805
730,0.0
779,4640822.0114960605
780,9935.164936300907
781,3764316.598404277
782,0.0
783,3265129.0305542927
784,11729.18772406381
883,211026.03928469997
922,211026.03928469997
2,3, 1, 3, 0, 7, 0.00,60.00,Tuesday
7,270192.3506237688
8,270192.3506237688
167,51396.8492498729
168,51396.8492498729
267,361861.6904101808
268,361861.6904101808
269,0.0
270,0.0
271,3603055.2564759767
272,0.0
273,2568174.125901942
274,0.0
717,5010305.809529259
730,0.0
779,4512050.763309
780,57008.00260497013
781,3633032.0178746944
782,0.0
783,3134988.795479512
784,67452.12128442893
883,734683.2478800665
922,734683.2478800665
2,3, 1, 3, 0, 8, 0.00,60.00,Tuesday
7,229663.4980302035
8,229663.4980302035
167,47725.64596375699
168,47725.64596375699
267,435574.25697521755
268,435574.25697521755
269,0.0
270,0.0
271,3810989.9448305294
272,0.0
273,2764688.1641198443
274,0.0
717,5068525.28920989
730,0.0
779,4558365.751597588
780,79549.59725907524
781,3663639.522512463
782,0.0
783,3153956.8448715303
784,103061.50453733321
883,781497.993119164
922,781497.993119164
2,3, 1, 3, 0, 9, 0.00,60.00,Tuesday
7,105375.01674326984
8,105375.01674326984
167,12914.683393414005
168,16335.540407154622
267,442275.39939022093
268,442275.39939022093
269,167793.09775765272
270,102160.73283655706
271,3880313.578840142
272,0.0
273,2823596.706365918
274,0.0
717,5177503.474377808
730,0.0
779,4658544.093860287
780,81906.71494106764
781,3775759.478572494
782,0.0
783,3257341.959483936
784,108623.56357662453
883,750314.8063455999
922,750314.8063455999
2,3, 1, 3, 0,10, 0.00,60.00,Tuesday
7,67548.0876559422
8,67548.0876559422
167,4405.444137994099
168,5158.479474509796
267,448976.5418052242
268,448976.5418052242
269,533290.8709925181
270,448594.4321492999
271,3816977.7747896323
272,0.0
273,2773295.466465424
274,0.0
717,5085238.658795815
730,0.0
779,4566139.324595102
780,70894.77745477985
781,3717432.939456279
782,0.0
783,3198859.9629637636
784,96847.20452629082
883,656525.4555523999
922,656525.4555523999
2,3, 1, 3, 0,11, 0.00,60.00,Tuesday
7,67548.0876559422
8,67548.0876559422
167,4405.444137994099
168,4405.444137994099
267,462378.82663523086
268,462378.82663523086
269,1162371.9988881778
270,1066795.2700842712
271,3666079.862804969
272,0.0
273,2652754.205763701
274,0.0
717,4694705.010075361
730,0.0
779,4187908.32997634
780,58720.20815617156
781,3432172.9272997733
782,0.0
783,2925833.5254031373
784,81266.62291174592
883,593999.2216902665
922,593999.2216902665
2,3, 1, 3, 0,12, 0.00,60.00,Tuesday
7,67548.0876559422
8,67548.0876559422
167,4405.444137994099
168,4485.589966539512
267,469079.9690502343
268,469079.9690502343
269,444155.3971200271
270,348272.50769896724
271,3523196.3394324128
272,0.0
273,2536988.529696443
274,0.0
717,4720688.393529531
730,0.0
779,4222457.280412871
780,44298.505099395654
781,3481576.746037621
782,0.0
783,2983733.641031217
784,63429.510550066174
883,476762.53319876664
922,476762.53319876664
2,3, 1, 3, 0,13, 0.00,60.00,Tuesday
7,67548.0876559422
8,67548.0876559422
167,4405.444137994099
168,4405.444137994099
267,462378.82663523086
268,462378.82663523086
269,594277.9002705652
270,368761.05969026405
271,3370187.675537247
272,0.0
273,2418853.148400839
274,0.0
717,4524273.5750709195
730,0.0
779,4049165.528357772
780,47148.34079680663
781,3375223.6685201735
782,0.0
783,2900439.755837152
784,63129.99100776735
883,414236.29933663324
922,414236.29933663324
2,3, 1, 3, 0,14, 0.00,60.00,Tuesday
7,67548.0876559422
8,67548.0876559422
167,4405.444137994099
168,4405.444137994099
267,442275.39939022093
268,442275.39939022093
269,543527.8370424558
270,279746.180190498