Program Version,EnergyPlus, Version 9.6.0-4b123cf80f, YMD=2022.01.18 17:35
1,5,Environment Title[],Latitude[deg],Longitude[deg],Time Zone[],Elevation[m]
2,8,Day of Simulation[],Month[],Day of Month[],DST Indicator[1=yes 0=no],Hour[],StartMinute[],EndMinute[],DayType
3,5,Cumulative Day of Simulation[],Month[],Day of Month[],DST Indicator[1=yes 0=no],DayType  ! When Daily Report Variables Requested
4,2,Cumulative Days of Simulation[],Month[]  ! When Monthly Report Variables Requested
5,1,Cumulative Days of Simulation[] ! When Run Period Report Variables Requested
6,1,Calendar Year of Simulation[] ! When Annual Report Variables Requested
7,1,ROOM_37_AB938512,Zone People Total Heating Energy [J] !Hourly
129,1,ROOM_37_AB938512,Zone Lights Electricity Energy [J] !Hourly
203,1,ROOM_37_AB938512,Zone Electric Equipment Electricity Energy [J] !Hourly
204,1,ROOM_37_AB938512,Zone Windows Total Transmitted Solar Radiation Energy [J] !Hourly
205,1,ROOM_37_AB938512,Zone Infiltration Total Heat Loss Energy [J] !Hourly
206,1,ROOM_37_AB938512,Zone Infiltration Total Heat Gain Energy [J] !Hourly
586,1,ROOM_37_AB938512 IDEAL LOADS AIR SYSTEM,Zone Ideal Loads Supply Air Total Heating Energy [J] !Hourly
599,1,ROOM_37_AB938512 IDEAL LOADS AIR SYSTEM,Zone Ideal Loads Supply Air Total Cooling Energy [J] !Hourly
648,1,ROOM_37_AB938512 IDEAL LOADS AIR SYSTEM,Zone Ideal Loads Zone Total Heating Energy [J] !Hourly
649,1,ROOM_37_AB938512 IDEAL LOADS AIR SYSTEM,Zone Ideal Loads Zone Total Cooling Energy [J] !Hourly
748,1,2019::MIDRISEAPARTMENT::APARTMENT_SHW..ROOM_37_AB938512,Water Use Equipment Heating Energy [J] !Hourly
End of Data Dictionary
1,RUN PERIOD 1,  47.44,-122.31,  -8.00, 122.00
2,1, 1, 1, 0, 1, 0.00,60.00,Sunday
7,370133.69285603793
129,10058.287338327013
203,413092.1405480198
204,0.0
205,5306162.452911811
206,0.0
586,13228339.493623743
599,0.0
648,12432583.932894617
649,86149.91270323025
748,81255.84941323259
2,1, 1, 1, 0, 2, 0.00,60.00,Sunday
7,370133.69285603793
129,10058.287338327013
203,376372.8391659736
204,0.0
205,5140363.578244553
206,0.0
586,13641703.883148817
599,0.0
648,12822482.958601244
649,29443.50357797757
748,40627.92470661629
2,1, 1, 1, 0, 3, 0.00,60.00,Sunday
7,370133.69285603793
129,10058.287338327013
203,358013.1884749505
204,0.0
205,5037908.576645647
206,0.0
586,13598186.894830123
599,0.0
648,12778276.288846673
649,7805.331142138857
748,10156.981176654073
2,1, 1, 1, 0, 4, 0.00,60.00,Sunday
7,370133.69285603793
129,10058.287338327013
203,348833.363129439
204,0.0
205,4889696.853592492
206,0.0
586,13304143.8302255
599,0.0
648,12502531.713024158
649,1606.4345172015237
748,10156.981176654073
2,1, 1, 1, 0, 5, 0.00,60.00,Sunday
7,370133.69285603793
129,30174.861126128097
203,348833.363129439
204,0.0
205,4706112.292676879
206,0.0
586,12852610.358055478
599,0.0
648,12079441.542025452
649,0.0
748,40627.92470661629
2,1, 1, 1, 0, 6, 0.00,60.00,Sunday
7,370133.69285603793
129,65378.86636584618
203,394732.48985699675
204,0.0
205,4380042.390638193
206,0.0
586,12075637.563740477
599,0.0
648,11359370.361881254
649,3052.6610208284183
748,274238.49176966003
2,1, 1, 1, 0, 7, 0.00,60.00,Sunday
7,370133.69285603793
129,70408.00959058323
203,495710.5686576237
204,0.0
205,4538191.781628191
206,0.0
586,12500631.557720078
599,0.0
648,11785862.798672944
649,22473.024373396765
748,954756.2306054827
2,1, 1, 1, 0, 8, 0.00,60.00,Sunday
7,314613.6389276323
129,65378.86636584618
203,596688.6474582509
204,0.0
205,4975493.190937698
206,0.0
586,13308891.88510364
599,0.0
648,12572549.095981622
649,81160.85784536044
748,1015594.2445798174
2,1, 1, 1, 0, 9, 0.00,60.00,Sunday
7,144352.14021385481
129,29759.025092894903
203,605868.4728037624
204,70434.45076005512
205,4909723.691757836
206,0.0
586,11890683.09028204
599,0.0
648,11186713.53017976
649,113025.84154155347
748,975070.192958791
2,1, 1, 1, 0,10, 0.00,60.00,Sunday
7,92533.42321400948
129,19084.59112702222
203,615048.298149274
204,245161.82193922997
205,4667908.553161986
206,0.0
586,9820685.937473057
599,0.0
648,9138872.467280246
649,94669.00402318833
748,853186.4188389422
2,1, 1, 1, 0,11, 0.00,60.00,Sunday
7,92533.42321400948
129,18460.457505865492
203,633407.948840297
204,359732.6347451208
205,4455324.001988727
206,0.0
586,8055029.361340799
599,0.0
648,7404788.9103359105
649,93203.83399205557
748,771930.5694257095
2,1, 1, 1, 0,12, 0.00,60.00,Sunday
7,92533.42321400948
129,18900.605603681954
203,642587.7741858086
204,248700.77945749462
205,4157026.974736451
206,0.0
586,7969542.976906137
599,0.0
648,7356123.101675624
649,83615.69965851796
748,619575.8517758985
2,1, 1, 1, 0,13, 0.00,60.00,Sunday
7,92533.42321400948
129,18686.481429293497
203,633407.948840297
204,292525.374723742
205,4544903.963888032
206,0.0
586,11603132.857603494
599,0.0
648,10904508.843449812
649,53670.102551790114
748,538320.0023626658
2,1, 1, 1, 0,14, 0.00,60.00,Sunday
7,92533.42321400948
129,18264.736655255187
203,605868.4728037624
204,409475.2137671749
205,4941629.015720198
206,0.0
586,13469703.817384807
599,0.0
648,12721263.033435695
649,71887.8709180345
748,477378.11530274135
2,1, 1, 1, 0,15, 0.00,60.00,Sunday
7,92533.42321400948
129,18896.02209773344
203,596688.6474582509
204,275524.7901674598
205,4802419.891552205
206,0.0
586,10609539.859147336
599,0.0
648,9873404.491248053
649,61454.59655280101
748,416436.22824281704
2,1, 1, 1, 0,16, 0.00,60.00,Sunday
7,92533.42321400948
129,34267.409898621765
203,624228.1234947856
204,128278.64663440317
205,4874085.268876147
206,0.0
586,11086050.911831282
599,0.0
648,10332530.83182478
649,50981.94713775674
748,477378.11530274135
2,1, 1, 1, 0,17, 0.00,60.00,Sunday
7,111040.1078568114
129,70242.97560104234
203,734386.0276409242
204,15909.572759772906
205,4925086.986837918
206,0.0
586,12107505.830991756
599,0.0
648,11341337.431060977
649,41428.06419957233
748,558633.964715974
2,1, 1, 1, 0,18, 0.00,60.00,Sunday
7,192469.52028513976
129,100582.8707167113
203,917982.5345511552
204,0.0
205,5030126.167556473
206,0.0
586,12081467.548015025
599,0.0
648,11315479.34108707
649,56710.91337027228
748,741459.6258957473
2,1, 1, 1, 0,19, 0.00,60.00,Sunday
7,322016.312784753
129,135786.87595642937
203,917982.5345511552
204,0.0
205,5227336.618653054
206,0.0
586,11927782.81399385
599,0.0
648,11162737.95712258
649,93129.40324428046
748,873500.3811922504
2,1, 1, 1, 0,20, 0.00,60.00,Sunday
7,322016.312784753
129,160932.59385782047
203,853723.7571325742
204,0.0
205,5259250.798510304
206,0.0
586,12222967.544461226
599,0.0
648,11458204.408504628
649,99715.56166171876
748,832872.4564856341
2,1, 1, 1, 0,21, 0.00,60.00,Sunday
7,322016.312784753
129,160932.59385782047
203,817004.4557505281
204,0.0
205,5299366.188983648
206,0.0
586,12756837.98880373
599,0.0
648,11977485.487817299
649,88983.18700178107
748,761773.5882490553
2,1, 1, 1, 0,22, 0.00,60.00,Sunday
7,370133.69285603793
129,110641.15805503835
203,780285.1543684818
204,0.0
205,5240648.868144928
206,0.0
586,13006847.632250119
599,0.0
648,12231511.738381132
649,84096.57496479712
748,619575.8517758985
2,1, 1, 1, 0,23, 0.00,60.00,Sunday
7,370133.69285603793
129,60349.72225225619
203,651767.5995313202
204,0.0
205,5122652.850216895
206,0.0
586,12855765.153050344
599,0.0
648,12090508.190600535
649,74038.9897480968
748,538320.0023626658
2,1, 1, 1, 0,24, 0.00,60.00,Sunday
7,370133.69285603793
129,25145.71790139106
203,532429.8700396699
204,0.0
205,5034482.306770848
206,0.0
586,12815570.837377131
599,0.0
648,12050032.802905092
649,59657.9959777022
748,294552.45412296813
2,2, 1, 2, 0, 1, 0.00,60.00,Monday
7,370133.69285603793
129,10058.287338327013
203,413092.1405480198
204,0.0
205,4832105.463887311
206,0.0
586,12618669.03427472
599,0.0
648,11870172.61024767
649,45848.83544626218
748,81275.53840000468
2,2, 1, 2, 0, 2, 0.00,60.00,Monday
7,370133.69285603793
129,10058.287338327013
203,376372.8391659736
204,0.0
205,4728843.5943958
206,0.0
586,12623475.361869816
599,0.0
648,11869483.400810072
649,18666.237811388783
748,40637.76920000234
2,2, 1, 2, 0, 3, 0.00,60.00,Monday
7,370133.69285603793
129,10058.287338327013
203,358013.1884749505
204,0.0
205,4775072.370322304
206,0.0
586,12837952.513675567
599,0.0
648,12071449.616111971
649,11563.769089979633
748,10159.442300000585
2,2, 1, 2, 0, 4, 0.00,60.00,Monday
7,370133.69285603793
129,10058.287338327013
203,348833.363129439
204,0.0
205,4653659.1211503465
206,0.0
586,12626987.345795833
599,0.0
648,11877617.397818416
649,9657.303691793095
748,10159.442300000585
2,2, 1, 2, 0, 5, 0.00,60.00,Monday
7,370133.69285603793
129,30174.861126128097
203,348833.363129439
204,0.0
205,4702181.448464985
206,0.0
586,12906362.9961414
599,0.0
648,12152150.542278167
649,13024.849363398607
748,40637.76920000234
2,2, 1, 2, 0, 6, 0.00,60.00,Monday
7,370133.69285603793
129,65378.86636584618
203,394732.48985699675
204,0.0
205,4843769.0353253735
206,0.0
586,14361825.695775468
599,0.0
648,13595513.944862623
649,21355.968476219005
748,274304.9421000158
2,2, 1, 2, 0, 7, 0.00,60.00,Monday
7,370133.69285603793
129,70408.00959058323
203,495710.5686576237
204,0.0
205,5070936.858842647
206,0.0
586,12896148.499400081
599,0.0
648,12130474.032690968
649,52777.70233449846
748,954987.5762000547
2,2, 1, 2, 0, 8, 0.00,60.00,Monday
7,314613.6389276323
129,65378.86636584618
203,596688.6474582509
204,0.0
205,5168641.931731444
206,0.0
586,12079076.748565717
599,0.0
648,11331392.772604238
649,93146.1910543705
748,1015840.331745132
2,2, 1, 2, 0, 9, 0.00,60.00,Monday
7,144352.14021385481
129,29687.52690169859
203,605868.4728037624
204,68787.82929617407
205,5121481.235561508
206,0.0
586,11556009.60337965
599,0.0
648,10820780.229264904
649,102373.66629507896
748,975306.4608000561
2,2, 1, 2, 0,10, 0.00,60.00,Monday
7,92533.42321400948
129,18984.075415868305
203,615048.298149274
204,257564.88843542035
205,5077965.461017697
206,0.0
586,10456263.07084763
599,0.0
648,9720919.357937228
649,96736.11371535581
748,853393.1532000491
2,2, 1, 2, 0,11, 0.00,60.00,Monday
7,92533.42321400948
129,18062.458662769666
203,633407.948840297
204,467053.3790198049
205,4818581.162656545
206,0.0
586,8640025.720940877
599,0.0
648,7951065.323389846
649,107396.25291859033
748,772117.6148000446
2,2, 1, 2, 0,12, 0.00,60.00,Monday
7,92533.42321400948
129,17466.477443101736
203,642587.7741858086
204,598999.5459220957
205,4466876.719389986
206,0.0
586,7227964.3654881995
599,0.0
648,6589412.874203537
649,106571.6860375987
748,619725.9803000357
2,2, 1, 2, 0,13, 0.00,60.00,Monday
7,92533.42321400948
129,18516.535500918097
203,633407.948840297
204,303661.1938774704
205,4283212.398025596
206,0.0
586,8237484.287526421
599,0.0
648,7578152.549810597
649,42937.51624500774
748,538450.4419000311
2,2, 1, 2, 0,14, 0.00,60.00,Monday
7,92533.42321400948
129,18675.24416912323
203,605868.4728037624
204,279617.58389455907
205,4369713.655744465
206,0.0
586,8785671.637364522
599,0.0
648,8118202.432470639
649,52135.650620341316
748,477493.78810002736
2,2, 1, 2, 0,15, 0.00,60.00,Monday
7,92533.42321400948
129,18799.091381194015
203,596688.6474582509
204,301694.2964212379
205,4316853.777224187
206,0.0
586,8941151.9371261
599,0.0
648,8269282.927552866
649,40273.95521461667
748,416537.1343000241
2,2, 1, 2, 0,16, 0.00,60.00,Monday
7,92533.42321400948
129,34028.2303007969
203,624228.1234947856
204,193888.6964027542
205,4429961.058186519
206,0.0
586,9989568.319367234
599,0.0
648,9307686.725954607
649,50546.42869409472
748,477493.78810002736
2,2, 1, 2, 0,17, 0.00,60.00,Monday
7,111040.1078568114
129,70207.82949243547
203,734386.0276409242
204,22508.50775371949
205,4260107.285314883
206,0.0
586,10479479.690891925
599,0.0
648,9829306.519959971
649,55681.04143747232
748,558769.3265000322
2,2, 1, 2, 0,18, 0.00,60.00,Monday
7,192469.52028513976
129,100582.8707167113
203,917982.5345511552
204,0.0
205,4099272.4990874743
206,0.0
586,9910077.66351341
599,0.0
648,9296988.345575713
649,66630.96028737527
748,741639.2879000427
2,2, 1, 2, 0,19, 0.00,60.00,Monday
7,322016.312784753
129,135786.87595642937
203,917982.5345511552
204,0.0
205,4211483.01170777
206,0.0
586,9728905.039696345
599,0.0
648,9112001.482574426
649,81139.02551689763
748,873712.0378000501
2,2, 1, 2, 0,20, 0.00,60.00,Monday
7,322016.312784753
129,160932.59385782047
203,853723.7571325742
204,0.0
205,4392101.636618006
206,0.0
586,10297074.978315137
599,0.0
648,9652661.392325247
649,83718.93694478204
748,833074.2686000481
2,2, 1, 2, 0,21, 0.00,60.00,Monday
7,322016.312784753
129,160932.59385782047
203,817004.4557505281
204,0.0
205,4612434.0437865015
206,0.0
586,12750502.361142997
599,0.0
648,12061838.51212461
649,74200.73442913854
748,761958.1725000438
2,2, 1, 2, 0,22, 0.00,60.00,Monday
7,370133.69285603793
129,110641.15805503835
203,780285.1543684818
204,0.0
205,4822954.66102547
206,0.0
586,12502839.545337347
599,0.0
648,11777184.728574792
649,74315.69289833051
748,619725.9803000357
2,2, 1, 2, 0,23, 0.00,60.00,Monday
7,370133.69285603793
129,60349.72225225619
203,651767.5995313202
204,0.0
205,4847707.381676367
206,0.0
586,11752988.716940504
599,0.0
648,11016992.986275021
649,70230.01334994461
748,538450.4419000311
2,2, 1, 2, 0,24, 0.00,60.00,Monday
7,370133.69285603793
129,25145.71790139106
203,532429.8700396699
204,0.0
205,4714536.6328423675
206,0.0
586,11724997.404945793
599,0.0
648,11003454.771693904
649,68860.0442005927
748,294623.8267000169
2,3, 1, 3, 0, 1, 0.00,60.00,Tuesday
7,370133.69285603793
129,10058.287338327013
203,413092.1405480198
204,0.0
205,4450487.290114794
206,0.0
586,11620137.183794372
599,0.0
648,10908070.713916922
649,33494.073340231174
748,81294.70336725298
2,3, 1, 3, 0, 2, 0.00,60.00,Tuesday
7,370133.69285603793
129,10058.287338327013
203,376372.8391659736
204,0.0
205,4003262.112701279
206,0.0
586,10866938.596969532
599,0.0
648,10202868.338254107
649,4455.257159325538
748,40647.35168362649
2,3, 1, 3, 0, 3, 0.00,60.00,Tuesday
7,370133.69285603793
129,10058.287338327013
203,358013.1884749505
204,0.0
205,3908442.558136616
206,0.0
586,10382924.871413672
599,0.0
648,9736349.744183328
649,8392.921046345691
748,10161.837920906622
2,3, 1, 3, 0, 4, 0.00,60.00,Tuesday
7,370133.69285603793
129,10058.287338327013
203,348833.363129439
204,0.0
205,3895450.2457505045
206,0.0
586,11589828.894527756
599,0.0
648,10941415.126516007
649,446.2987779578725
748,10161.837920906622
2,3, 1, 3, 0, 5, 0.00,60.00,Tuesday
7,370133.69285603793
129,30174.861126128097
203,348833.363129439
204,0.0
205,3971779.225137162
206,0.0
586,12514163.560100012
599,0.0
648,11855148.13395295
649,0.0
748,40647.35168362649
2,3, 1, 3, 0, 6, 0.00,60.00,Tuesday
7,370133.69285603793
129,65378.86636584618
203,394732.48985699675
204,0.0
205,4180676.320783845
206,0.0
586,11706010.643318146
599,0.0
648,11022888.04235455
649,11184.889221609592
748,274369.62386447896
2,3, 1, 3, 0, 7, 0.00,60.00,Tuesday
7,370133.69285603793
129,70408.00959058323
203,495710.5686576237
204,0.0
205,4574296.02282407
206,0.0
586,10962761.027187865
599,0.0
648,10280210.08244016
649,78265.48585452756
748,955212.7645652227
2,3, 1, 3, 0, 8, 0.00,60.00,Tuesday
7,314613.6389276323
129,65378.86636584618
203,596688.6474582509
204,0.0
205,4869961.13715905
206,0.0
586,11192128.461742789
599,0.0
648,10493384.788786417
649,114820.59980835611
748,1016079.8693362778
2,3, 1, 3, 0, 9, 0.00,60.00,Tuesday
7,144352.14021385481
129,29359.171097919796
203,605868.4728037624
204,186949.89256853148
205,4968544.257910761
206,0.0
586,11157611.163423972
599,0.0
648,10446855.570210908
649,120164.46336022399
748,975536.440407036
2,3, 1, 3, 0,10, 0.00,60.00,Tuesday
7,92533.42321400948
129,17773.74173251707
203,615048.298149274
204,671640.285186849
205,4887489.919709383
206,0.0
586,9417763.327153679
599,0.0
648,8706823.42257122
649,105444.666292327
748,853594.3853561563
2,3, 1, 3, 0,11, 0.00,60.00,Tuesday
7,92533.42321400948
129,13218.363508562037
203,633407.948840297
204,1984080.9895683927
205,4684490.381316658
206,0.0
586,6530110.068201531
599,0.0
648,5835985.4215772925
649,86892.24688467702
748,772299.6819889036
2,3, 1, 3, 0,12, 0.00,60.00,Tuesday
7,92533.42321400948
129,17269.890090375076
203,642587.7741858086
204,683038.3606412373
205,4495098.890024879
206,0.0
586,8122662.404568656
599,0.0
648,7440243.046582546
649,65726.33079896368
748,619872.1131753041
2,3, 1, 3, 0,13, 0.00,60.00,Tuesday
7,92533.42321400948
129,16137.788207032045
203,633407.948840297
204,1001561.7347412888
205,4297136.386481551
206,0.0
586,7318938.255194209
599,0.0
648,6668176.224089031
649,68707.21699762908
748,538577.4098080512
2,3, 1, 3, 0,14, 0.00,60.00,Tuesday
7,92533.42321400948
129,17042.21330354996
203,605868.4728037624
204,829835.0262609196
205,4106697.8788707517
206,0.0
586,7016675.77699599
599,0.0
648,6388403.848906842
649,60888.396325074835
748,477606.38228261133
2,3, 1, 3, 0,15, 0.00,60.00,Tuesday
7,92533.42321400948
129,19196.618974083998
203,596688.6474582509
204,204225.91253093883
205,4164178.2876780787
206,0.0
586,8747184.848284248
599,0.0
648,8101509.447310452
649,51075.10858991559
748,416635.35475717165
2,3, 1, 3, 0,16, 0.00,60.00,Tuesday
7,92533.42321400948
129,34454.99127751489
203,624228.1234947856
204,108158.07706710321
205,4273868.953097214
206,0.0
586,9910545.90142865
599,0.0
648,9237786.97448824
649,36501.689404456556
748,477606.38228261133
2,3, 1, 3, 0,17, 0.00,60.00,Tuesday
7,111040.1078568114
129,70263.99598737767
203,734386.0276409242
204,13575.674131039668
205,4452372.20431144
206,0.0
586,10905587.834123211
599,0.0
648,10205041.157901425
649,34447.5716361002
748,558901.0856498643
2,3, 1, 3, 0,18, 0.00,60.00,Tuesday
7,192469.52028513976
129,100582.8707167113
203,917982.5345511552
204,0.0
205,4767228.189806603
206,0.0
586,11134224.059336452
599,0.0
648,10422537.58302938
649,80368.53792194862
748,741814.1682261836
2,3, 1, 3, 0,19, 0.00,60.00,Tuesday
7,322016.312784753
129,135786.87595642937
203,917982.5345511552
204,0.0
205,4947931.243450713
206,0.0
586,11250817.64614306
599,0.0
648,10525338.878449429
649,95095.66444690363
748,873918.0611979696
2,3, 1, 3, 0,20, 0.00,60.00,Tuesday
7,322016.312784753
129,160932.59385782047
203,853723.7571325742
204,0.0
205,4975492.494050001
206,0.0
586,11288783.047580983
599,0.0
648,10567771.879741047
649,105615.28991598725
748,833270.7095143433
2,3, 1, 3, 0,21, 0.00,60.00,Tuesday
7,322016.312784753
129,160932.59385782047
203,817004.4557505281
204,0.0
205,4911187.409001706
206,0.0
586,11344763.666233363
599,0.0
648,10634296.449078986
649,107604.04062555407
748,762137.8440679968
2,3, 1, 3, 0,22, 0.00,60.00,Tuesday
7,370133.69285603793
129,110641.15805503835
203,780285.1543684818
204,0.0
205,4867243.019454397
206,0.0
586,11487609.928280646
599,0.0
648,10777263.286057444
649,100800.91219425129
748,619872.1131753041
2,3, 1, 3, 0,23, 0.00,60.00,Tuesday
7,370133.69285603793
129,60349.72225225619
203,651767.5995313202
204,0.0
205,4760135.688744469
206,0.0
586,11480384.257715601
599,0.0
648,10769721.54458751
649,79853.57381346058
748,538577.4098080512
2,3, 1, 3, 0,24, 0.00,60.00,Tuesday
7,370133.69285603793
129,25145.71790139106
203,532429.8700396699
204,0.0
205,4640848.595479376
206,0.0
586,11763182.223331673
599,0.0
648,11037067.531991782
649,39627.27160432987
748,294693.2997062921
2,4, 1, 4, 0, 1, 0.00,60.00,Wednesday
7,370133.69285603793
129,10058.287338327013
203,413092.1405480198
204,0.0
205,4678747.289820185
206,0.0
586,13183512.249677995
599,0.0
648,12429073.931584176
649,15073.597126783989
748,81313.33863945404
2,4, 1, 4, 0, 2, 0.00,60.00,Wednesday
7,370133.69285603793
129,10058.287338327013
203,376372.8391659736
204,0.0
205,4692163.369510795
206,0.0
586,14172492.932378447
599,0.0
648,13405257.072513416
649,3115.7332216809664
748,40656.66931972702
2,4, 1, 4, 0, 3, 0.00,60.00,Wednesday
7,370133.69285603793
129,10058.287338327013
203,358013.1884749505
204,0.0
205,4754844.696543412
206,0.0
586,13154531.102672413
599,0.0
648,12387622.650873408
649,17172.42645719716
748,10164.167329931755
2,4, 1, 4, 0, 4, 0.00,60.00,Wednesday
7,370133.69285603793
129,10058.287338327013
203,348833.363129439
204,0.0
205,4850647.177024059
206,0.0
586,12715329.13148413
599,0.0
648,11934216.93153937
649,17964.164503662778
748,10164.167329931755
2,4, 1, 4, 0, 5, 0.00,60.00,Wednesday
7,370133.69285603793
129,30174.861126128097
203,348833.363129439
204,0.0
205,4948989.23397269
206,0.0
586,13180808.801468676
599,0.0
648,12389726.356206398
649,23554.02014301426
748,40656.66931972702
2,4, 1, 4, 0, 6, 0.00,60.00,Wednesday
7,370133.69285603793
129,65378.86636584618
203,394732.48985699675
204,0.0
205,5155444.724915104
206,0.0
586,13717567.4589216
599,0.0
648,12909881.90726095
649,38564.120936159365
748,274432.5179081574
2,4, 1, 4, 0, 7, 0.00,60.00,Wednesday
7,370133.69285603793
129,70408.00959058323
203,495710.5686576237
204,0.0
205,5260649.04811237
206,0.0
586,13290068.344239164
599,0.0
648,12502573.957424982
649,71079.70960484
748,955431.7290135848
2,4, 1, 4, 0, 8, 0.00,60.00,Wednesday
7,314613.6389276323
129,65378.86636584618
203,596688.6474582509
204,0.0
205,5376871.844474993
206,0.0
586,12887188.683315907
599,0.0
648,12108650.927384395
649,103172.42556257697
748,1016312.786416466
2,4, 1, 4, 0, 9, 0.00,60.00,Wednesday
7,144352.14021385481
129,29827.05684130383
203,605868.4728037624
204,49468.7510170799
205,5403932.824380365
206,0.0
586,12775756.696020633
599,0.0
648,11986699.828752741
649,96233.84611134334
748,975760.0636734484
2,4, 1, 4, 0,10, 0.00,60.00,Wednesday
7,92533.42321400948
129,19404.70744377335
203,615048.298149274
204,144701.56928785655
205,5376749.948405205
206,0.0
586,12923376.866873898
599,0.0
648,12134145.976598155
649,92464.86506322362
748,853790.0557142671
2,4, 1, 4, 0,11, 0.00,60.00,Wednesday
7,92533.42321400948
129,18271.731583285782
203,633407.948840297
204,409310.3184601144
205,5124392.815677016
206,0.0
586,11270856.57633897
599,0.0
648,10512963.963341618
649,84316.02928503708
748,772476.7170748133
2,4, 1, 4, 0,12, 0.00,60.00,Wednesday
7,92533.42321400948
129,17691.728148256767
203,642587.7741858086
204,543251.5183495049
205,4873043.005489389
206,0.0
586,8393935.825288758
599,0.0
648,7658019.441819135
649,65446.060221813146
748,620014.2071258371
2,4, 1, 4, 0,13, 0.00,60.00,Wednesday
7,92533.42321400948
129,17254.204611731515
203,633407.948840297
204,731106.2906206037
205,4576456.360987589
206,0.0
586,7784670.527668926
599,0.0
648,7079657.00952162
649,47182.95657906219
748,538700.868486383
2,4, 1, 4, 0,14, 0.00,60.00,Wednesday
7,92533.42321400948
129,17759.087767107
203,605868.4728037624
204,609478.6334203933
205,4479724.601371816
206,0.0
586,7965707.400846104
599,0.0
648,7283508.854785199
649,59381.74365701903
748,477715.8645067924
2,4, 1, 4, 0,15, 0.00,60.00,Wednesday
7,92533.42321400948
129,17914.24396264748
203,596688.6474582509
204,642258.6462476136
205,4490789.721094673
206,0.0
586,8427630.425122622
599,0.0
648,7745785.198680282
649,64317.62302867728
748,416730.8605272019
2,4, 1, 4, 0,16, 0.00,60.00,Wednesday
7,92533.42321400948
129,33828.90925561778
203,624228.1234947856
204,263423.09251630964
205,4401221.51666865
206,0.0
586,9800295.989432119
599,0.0
648,9117979.388431672
649,42963.043120139904
748,477715.8645067924
2,4, 1, 4, 0,17, 0.00,60.00,Wednesday
7,111040.1078568114
129,70182.1193569575
203,734386.0276409242
204,30923.682177531766
205,4599727.376711894
206,0.0
586,11365765.341970127
599,0.0
648,10666622.795697879
649,58643.02229635241
748,559029.2031462465
2,4, 1, 4, 0,18, 0.00,60.00,Wednesday
7,192469.52028513976
129,100582.8707167113
203,917982.5345511552
204,0.0
205,4889881.34191536
206,0.0
586,11941022.294166397
599,0.0
648,11215928.374496952
649,78881.17531383105
748,741984.2150850181
2,4, 1, 4, 0,19, 0.00,60.00,Wednesday
7,322016.312784753
129,135786.87595642937
203,917982.5345511552
204,0.0
205,5350118.684142935
206,0.0
586,12769472.788512858
599,0.0
648,11985803.485205375
649,90365.90652710455
748,874118.3903741308
2,4, 1, 4, 0,20, 0.00,60.00,Wednesday
7,322016.312784753
129,160932.59385782047
203,853723.7571325742
204,0.0
205,5759913.373304413
206,0.0
586,14072696.982463688
599,0.0
648,13237576.419262454
649,105544.09357776702
748,833461.7210544038
2,4, 1, 4, 0,21, 0.00,60.00,Wednesday
7,322016.312784753
129,160932.59385782047
203,817004.4557505281
204,0.0
205,5739263.310727559
206,0.0
586,14539500.35870551
599,0.0
648,13691641.10747535
649,85667.63332646179
748,762312.5497448815
2,4, 1, 4, 0,22, 0.00,60.00,Wednesday
7,370133.69285603793
129,110641.15805503835
203,780285.1543684818
204,0.0
205,5519191.56509168
206,0.0
586,14422448.906314766
599,0.0
648,13591044.66018641
649,65203.96329855693
748,620014.2071258371
2,4, 1, 4, 0,23, 0.00,60.00,Wednesday
7,370133.69285603793
129,60349.72225225619
203,651767.5995313202
204,0.0
205,5778395.158248212
206,0.0
586,14546378.248734787
599,0.0
648,13696746.846151456
649,95176.49113424167
748,538700.868486383
2,4, 1, 4, 0,24, 0.00,60.00,Wednesday
7,370133.69285603793
129,25145.71790139106
203,532429.8700396699
204,0.0
205,5974475.60734188
206,0.0
586,15350937.305586927
599,0.0
648,14462026.00174679
649,87318.67957992562
748,294760.85256802075
2,5, 1, 5, 0, 1, 0.00,60.00,Thursday
7,370133.69285603793
129,10058.287338327013
203,413092.1405480198
204,0.0
205,6241298.296259809
206,0.0
586,16467214.857636612
599,0.0
648,15520312.128486685
649,67163.18825343897
748,81331.43869794841
2,5, 1, 5, 0, 2, 0.00,60.00,Thursday
7,370133.69285603793
129,10058.287338327013
203,376372.8391659736
204,0.0
205,6042252.299401328
206,0.0
586,16971544.734961692
599,0.0
648,16022640.32365663
649,26391.76317317033
748,40665.719348974206
2,5, 1, 5, 0, 3, 0.00,60.00,Thursday
7,370133.69285603793
129,10058.287338327013
203,358013.1884749505
204,0.0
205,5934518.577322571
206,0.0
586,16852224.701955028
599,0.0
648,15908191.957082603
649,11657.991648605821
748,10166.429837243551
2,5, 1, 5, 0, 4, 0.00,60.00,Thursday
7,370133.69285603793
129,10058.287338327013
203,348833.363129439
204,0.0
205,6571708.279779492
206,0.0
586,17915406.647986017
599,0.0
648,16897273.77161727
649,39035.00422177913
748,10166.429837243551
2,5, 1, 5, 0, 5, 0.00,60.00,Thursday
7,370133.69285603793
129,30174.861126128097
203,348833.363129439
204,0.0
205,6791266.943690693
206,0.0
586,18777251.380704597
599,0.0
648,17714052.231459673
649,22182.340946857767
748,40665.719348974206
2,5, 1, 5, 0, 6, 0.00,60.00,Thursday
7,370133.69285603793
129,65378.86636584618
203,394732.48985699675
204,0.0
205,7103539.837517587
206,0.0
586,18954107.826750875
599,0.0
648,17860022.26154885
649,36683.600443581236
748,274493.6056055759
2,5, 1, 5, 0, 7, 0.00,60.00,Thursday
7,370133.69285603793
129,70408.00959058323
203,495710.5686576237
204,0.0
205,6986268.549538988
206,0.0
586,18025585.94722138
599,0.0
648,16957276.02372309
649,34081.0041211038
748,955644.4047008939
2,5, 1, 5, 0, 8, 0.00,60.00,Thursday
7,314613.6389276323
129,65378.86636584618
203,596688.6474582509
204,0.0
205,6980726.614149205
206,0.0
586,17120018.07540268
599,0.0
648,16086869.13886167
649,75523.63865633524
748,1016539.0140095095
2,5, 1, 5, 0, 9, 0.00,60.00,Thursday
7,144352.14021385481
129,26708.123904070315
203,605868.4728037624
204,1619941.6278742799
205,7401439.566632045
206,0.0
586,15581964.091281075
599,0.0
648,14515721.633713908
649,116216.74683611208
748,975977.2643753809
2,5, 1, 5, 0,10, 0.00,60.00,Thursday
7,92533.42321400948
129,11611.370401911838
203,615048.298149274
204,2557732.801452618
205,6631138.186878739
206,0.0
586,11652399.748744968
599,0.0
648,10657147.397057941
649,61458.07890764128
748,853980.1063284583
2,5, 1, 5, 0,11, 0.00,60.00,Thursday
7,92533.42321400948
129,16816.320368119035
203,633407.948840297
204,856492.0100311385
205,6279998.323891696
206,0.0
586,11547104.53372866
599,0.0
648,10603544.43687969
649,61775.15388981164
748,772648.6676305099
2,5, 1, 5, 0,12, 0.00,60.00,Thursday
7,92533.42321400948
129,17155.072616220456
203,642587.7741858086
204,741936.6361005637
205,6218813.79089185
206,0.0
586,11182107.801366337
599,0.0
648,10243246.064587757
649,60770.44210958174
748,620152.2200718567
2,5, 1, 5, 0,13, 0.00,60.00,Thursday
7,92533.42321400948
129,14789.558725983785
203,633407.948840297
204,1373356.9960038825
205,6015633.23682693
206,0.0
586,10321633.268625896
599,0.0
648,9409182.613411859
649,57623.48719008023
748,538820.7813739084
2,5, 1, 5, 0,14, 0.00,60.00,Thursday
7,92533.42321400948
129,6157.821193262492
203,605868.4728037624
204,4467015.757315648
205,5552106.204860872
206,0.0
586,5946109.237236123
599,0.0
648,5092117.11367036
649,43648.42502172292
748,477822.20235044695
2,5, 1, 5, 0,15, 0.00,60.00,Thursday
7,92533.42321400948
129,7038.666451845062
203,596688.6474582509
204,4204629.52769676
205,4984505.050775458
206,0.0
586,5170461.507335948
599,0.0
648,4399709.809155422
649,40341.87570385434
748,416823.6233269856
2,5, 1, 5, 0,16, 0.00,60.00,Thursday
7,92533.42321400948
129,23669.474639132135
203,624228.1234947856
204,2575408.3065486182
205,4941124.051062213
206,0.0
586,7784973.483130779
599,0.0
648,7032255.57358815
649,54847.50828783494
748,477822.20235044695
2,5, 1, 5, 0,17, 0.00,60.00,Thursday
7,111040.1078568114
129,69472.68664388786
203,734386.0276409242
204,326240.56956239743
205,5510904.721770561
206,0.0
586,13303903.82360426
599,0.0
648,12476482.624545358
649,68565.59278009128
748,559153.6410483954
2,5, 1, 5, 0,18, 0.00,60.00,Thursday
7,192469.52028513976
129,100582.8707167113
203,917982.5345511552
204,0.0
205,5955814.130376437
206,0.0
586,15449141.916304482
599,0.0
648,14559726.06276748
649,70555.50263632041
748,742149.3781187793
2,5, 1, 5, 0,19, 0.00,60.00,Thursday
7,322016.312784753
129,135786.87595642937
203,917982.5345511552
204,0.0
205,6378319.8575572735
206,0.0
586,16008141.545401607
599,0.0
648,15075604.74931084
649,92047.38379439258
748,874312.9660029456
2,5, 1, 5, 0,20, 0.00,60.00,Thursday
7,322016.312784753
129,160932.59385782047
203,853723.7571325742
204,0.0
205,6594608.566649152
206,0.0
586,16532310.169340882
599,0.0
648,15577835.952652922
649,104819.10464159973
748,833647.2466539711
2,5, 1, 5, 0,21, 0.00,60.00,Thursday
7,322016.312784753
129,160932.59385782047
203,817004.4557505281
204,0.0
205,6339125.830922666
206,0.0
586,16370537.635399118
599,0.0
648,15432453.435285788
649,77301.78778951487
748,762482.2377932663
2,5, 1, 5, 0,22, 0.00,60.00,Thursday