Program Version,EnergyPlus, Version 9.6.0-4b123cf80f, YMD=2022.05.17 16:47
1,5,Environment Title[],Latitude[deg],Longitude[deg],Time Zone[],Elevation[m]
2,8,Day of Simulation[],Month[],Day of Month[],DST Indicator[1=yes 0=no],Hour[],StartMinute[],EndMinute[],DayType
3,5,Cumulative Day of Simulation[],Month[],Day of Month[],DST Indicator[1=yes 0=no],DayType  ! When Daily Report Variables Requested
4,2,Cumulative Days of Simulation[],Month[]  ! When Monthly Report Variables Requested
5,1,Cumulative Days of Simulation[] ! When Run Period Report Variables Requested
6,1,Calendar Year of Simulation[] ! When Annual Report Variables Requested
7,1,ROOM_53_EC09D746,Zone People Total Heating Energy [J] !Hourly
8,1,ROOM_54_A8712A4B,Zone People Total Heating Energy [J] !Hourly
167,1,ROOM_53_EC09D746,Zone Lights Electricity Energy [J] !Hourly
168,1,ROOM_54_A8712A4B,Zone Lights Electricity Energy [J] !Hourly
267,1,ROOM_53_EC09D746,Zone Electric Equipment Electricity Energy [J] !Hourly
268,1,ROOM_54_A8712A4B,Zone Electric Equipment Electricity Energy [J] !Hourly
269,1,ROOM_53_EC09D746,Zone Windows Total Transmitted Solar Radiation Energy [J] !Hourly
270,1,ROOM_54_A8712A4B,Zone Windows Total Transmitted Solar Radiation Energy [J] !Hourly
271,1,ROOM_53_EC09D746,Zone Infiltration Total Heat Loss Energy [J] !Hourly
272,1,ROOM_53_EC09D746,Zone Infiltration Total Heat Gain Energy [J] !Hourly
273,1,ROOM_54_A8712A4B,Zone Infiltration Total Heat Loss Energy [J] !Hourly
274,1,ROOM_54_A8712A4B,Zone Infiltration Total Heat Gain Energy [J] !Hourly
717,1,ROOM_53_EC09D746 IDEAL LOADS AIR SYSTEM,Zone Ideal Loads Supply Air Total Heating Energy [J] !Hourly
730,1,ROOM_53_EC09D746 IDEAL LOADS AIR SYSTEM,Zone Ideal Loads Supply Air Total Cooling Energy [J] !Hourly
779,1,ROOM_53_EC09D746 IDEAL LOADS AIR SYSTEM,Zone Ideal Loads Zone Total Heating Energy [J] !Hourly
780,1,ROOM_53_EC09D746 IDEAL LOADS AIR SYSTEM,Zone Ideal Loads Zone Total Cooling Energy [J] !Hourly
781,1,ROOM_54_A8712A4B IDEAL LOADS AIR SYSTEM,Zone Ideal Loads Supply Air Total Heating Energy [J] !Hourly
782,1,ROOM_54_A8712A4B IDEAL LOADS AIR SYSTEM,Zone Ideal Loads Supply Air Total Cooling Energy [J] !Hourly
783,1,ROOM_54_A8712A4B IDEAL LOADS AIR SYSTEM,Zone Ideal Loads Zone Total Heating Energy [J] !Hourly
784,1,ROOM_54_A8712A4B IDEAL LOADS AIR SYSTEM,Zone Ideal Loads Zone Total Cooling Energy [J] !Hourly
883,1,2019::MIDRISEAPARTMENT::APARTMENT_SHW..ROOM_53_EC09D746,Water Use Equipment Heating Energy [J] !Hourly
922,1,2019::MIDRISEAPARTMENT::APARTMENT_SHW..ROOM_54_A8712A4B,Water Use Equipment Heating Energy [J] !Hourly
End of Data Dictionary
1,RUN PERIOD 1,  47.47,-122.32,  -8.00, 122.00
2,1, 1, 1, 0, 1, 0.00,60.00,Sunday
7,494829.6072434735
8,605582.7160307199
167,13446.86654911526
168,16456.553625153472
267,552260.5091297295
268,675867.8425455126
269,0.0
270,0.0
271,4340047.050362708
272,0.0
273,8362965.421347973
274,0.0
717,6843790.813298348
730,0.0
779,5838222.119289563
780,140866.01131930237
781,11574605.687808223
782,0.0
783,10252561.031480722
784,139229.25485862032
883,114457.08749128817
922,140074.9528672307
2,1, 1, 1, 0, 2, 0.00,60.00,Sunday
7,494829.6072434735
8,605582.7160307199
167,13446.86654911526
168,16456.553625153472
267,503170.68609597575
268,615790.7009859114
269,0.0
270,0.0
271,4164740.4632606753
272,0.0
273,8090158.63706735
274,0.0
717,7093681.789146207
730,0.0
779,6058224.756877277
780,58468.76639728749
781,12003464.939183775
782,0.0
783,10642882.47835401
784,40911.91468394527
883,57228.543745644085
922,70037.47643361535
2,1, 1, 1, 0, 3, 0.00,60.00,Sunday
7,494829.6072434735
8,605582.7160307199
167,13446.86654911526
168,16456.553625153472
267,478625.774579099
268,585752.1302061109
269,0.0
270,0.0
271,4052451.588729889
272,0.0
273,7971167.395178666
274,0.0
717,7123173.492097064
730,0.0
779,6086651.182188771
780,21582.390992618548
781,12040585.730813758
782,0.0
783,10678484.594484223
784,12607.971731260204
883,14307.135936411021
922,17509.369108403836
2,1, 1, 1, 0, 4, 0.00,60.00,Sunday
7,494829.6072434735
8,605582.7160307199
167,13446.86654911526
168,16456.553625153472
267,466353.3188206604
268,570732.8448162106
269,0.0
270,0.0
271,3923033.963310008
272,0.0
273,7744786.880417567
274,0.0
717,6997289.603952139
730,0.0
779,5982015.328133401
780,8546.396686742492
781,11792050.27600401
782,0.0
783,10459495.738344777
784,3117.6978612637868
883,14307.135936411021
922,17509.369108403836
2,1, 1, 1, 0, 5, 0.00,60.00,Sunday
7,494829.6072434735
8,605582.7160307199
167,40340.598459043395
168,49369.65942119137
267,466353.3188206604
268,570732.8448162106
269,0.0
270,0.0
271,3773575.263796786
272,0.0
273,7464498.322091757
274,0.0
717,6749710.350504365
730,0.0
779,5767613.19827926
780,2422.5507608552107
781,11329641.120933196
782,0.0
783,10042103.40720644
784,0.0
883,57228.543745644085
922,70037.47643361535
2,1, 1, 1, 0, 6, 0.00,60.00,Sunday
7,494829.6072434735
8,605582.7160307199
167,87404.6307867956
168,106967.596382094
267,527715.5976128526
268,645829.2717657121
269,0.0
270,0.0
271,3532886.016712558
272,0.0
273,6962684.360044856
274,0.0
717,6161316.5033827815
730,0.0
779,5253619.962830181
780,12243.743324824345
781,10284820.30697292
782,0.0
783,9093261.685670437
784,8529.249607302245
883,386292.67028309754
922,472752.96592690365
2,1, 1, 1, 0, 7, 0.00,60.00,Sunday
7,494829.6072434735
8,605582.7160307199
167,94128.06346720205
168,115195.8724675362
267,662712.6109556755
268,811041.4110546153
269,0.0
270,0.0
271,3740913.851425923
272,0.0
273,7256637.622139519
274,0.0
717,5836577.902680934
730,0.0
779,4933348.649745475
780,57060.173474670686
781,9799078.944854844
782,0.0
783,8611891.239814183
784,49020.92070846811
883,1344870.7780226357
922,1645880.696189961
2,1, 1, 1, 0, 8, 0.00,60.00,Sunday
7,420605.1661569526
8,514745.30862611195
167,87404.6307867956
168,106967.596382094
267,797709.6242984982
268,976253.5503435184
269,0.0
270,0.0
271,4197290.800621972
272,0.0
273,7958836.2913522795
274,0.0
717,5929173.6313547315
730,0.0
779,4999303.649372644
780,162785.0249430615
781,10031438.04257543
782,0.0
783,8808511.393842457
784,151515.47834651184
883,1430567.2778874522
922,1750757.8465924151
2,1, 1, 1, 0, 9, 0.00,60.00,Sunday
7,192983.54682495468
8,236177.25925198084
167,35771.20670183035
168,40240.18901932078
267,809982.0800569366
268,991272.8357334186
269,58083.60644419266
270,67280.57207549184
271,4176199.751509792
272,0.0
273,7806694.45299024
274,0.0
717,5802523.748626252
730,0.0
779,4913815.4786533695
780,214242.36335021912
781,9750263.446072249
782,0.0
783,8580949.558193589
784,196170.89395447902
883,1373485.049895458
922,1680899.4344067685
2,1, 1, 1, 0,10, 0.00,60.00,Sunday
7,123707.40181086838
8,151395.67900767998
167,15429.573602790542
168,12718.05527747643
267,822254.5358153752
268,1006292.1211233188
269,182630.39856203168
270,217322.00950463387
271,3971164.8652587705
272,0.0
273,7403158.484971571
274,0.0
717,5483496.366089113
730,0.0
779,4622773.710132078
780,189536.58098950845
781,9069793.035207527
782,0.0
783,7937183.020038694
784,160576.95661746
883,1201799.4186585255
922,1470787.0051059225
2,1, 1, 1, 0,11, 0.00,60.00,Sunday
7,123707.40181086838
8,151395.67900767998
167,9698.72466357314
168,9873.931738811369
267,846799.4473322516
268,1036330.6919031191
269,262879.55692457035
270,310713.85718254664
271,3777146.8848714605
272,0.0
273,7068489.22367015
274,0.0
717,5059054.013629379
730,0.0
779,4238106.573207636
780,180376.36742928374
781,8229343.140540795
782,0.0
783,7149189.802305311
784,158405.71682238844
883,1087342.3311672376
922,1330712.0522386914
2,1, 1, 1, 0,12, 0.00,60.00,Sunday
7,123707.40181086838
8,151395.67900767998
167,14919.511907436648
168,10583.843171876815
267,859071.9030906901
268,1051349.9772930194
269,187961.6049006978
270,220365.0676503012
271,3518409.3961688313
272,0.0
273,6589305.992961017
274,0.0
717,4838824.851109523
730,0.0
779,4064339.98306764
780,163505.32708554587
781,7806546.680063468
782,0.0
783,6787536.182045544
784,141189.3059057656
883,872735.2921210723
922,1068071.5156126341
2,1, 1, 1, 0,13, 0.00,60.00,Sunday
7,123707.40181086838
8,151395.67900767998
167,12077.90485615832
168,9873.931738811369
267,846799.4473322516
268,1036330.6919031191
269,216246.69795421007
270,258914.41257306683
271,3789057.532048039
272,0.0
273,7205347.870443786
274,0.0
717,5509315.17666821
730,0.0
779,4626881.805937621
780,115303.01126071581
781,9000846.447996253
782,0.0
783,7840289.226999896
784,91464.09928960101
883,758278.2046297843
922,927996.5627454034
2,1, 1, 1, 0,14, 0.00,60.00,Sunday
7,123707.40181086838
8,151395.67900767998
167,8068.119572978441
168,9873.931738811369
267,809982.0800569366
268,991272.8357334186
269,282313.17909863696
270,343006.72863258043
271,4084556.796753701
272,0.0
273,7822272.0027632145
274,0.0
717,5938254.249461947
730,0.0
779,4992690.319863397
780,131520.4010712214
781,9803762.317085411
782,0.0
783,8560434.205829317
784,121150.57684785197
883,672435.3890113179
922,822940.3480949805
2,1, 1, 1, 0,15, 0.00,60.00,Sunday
7,123707.40181086838
8,151395.67900767998
167,11006.108256337666
168,9994.121296480063
267,797709.6242984982
268,976253.5503435184
269,228352.42365096346
270,262126.7534487144
271,3961396.7584324935
272,0.0
273,7589406.901980047
274,0.0
717,5931723.997255124
730,0.0
779,5001657.739565413
780,115257.474804909
781,9864755.122996699
782,0.0
783,8641799.566958984
784,100362.84426263081
883,586592.5733928519
922,717884.1334445571
2,1, 1, 1, 0,16, 0.00,60.00,Sunday
7,123707.40181086838
8,151395.67900767998
167,34332.95624403215
168,34294.46689291253
267,834526.9915738135
268,1021311.406513219
269,114336.15594932718
270,136709.84082559514
271,4008883.7593393624
272,0.0
273,7716777.708753091
274,0.0
717,6165724.197010789
730,0.0
779,5213607.949203579
780,98692.6040221793
781,10316675.516778324
782,0.0
783,9064888.05025502
784,85371.57847521457
883,672435.3890113179
922,822940.3480949805
2,1, 1, 1, 0,17, 0.00,60.00,Sunday
7,148448.88217304208
8,181674.814809216
167,91829.6785472468
168,110960.4525687367
267,981796.4606750747
268,1201542.8311920224
269,11492.192040465776
270,16067.92428692739
271,4055289.534766941
272,0.0
273,7811531.13096289
274,0.0
717,6269622.297896086
730,0.0
779,5301535.002649539
780,87720.7704621258
781,10589441.315406226
782,0.0
783,9316688.038595805
784,71791.67040913353
883,786892.4765026063
922,963015.3009622113
2,1, 1, 1, 0,18, 0.00,60.00,Sunday
7,257311.39576660626
8,314903.0123359744
167,134468.66192624546
168,164565.53188872756
267,1227245.5758438432
268,1501928.538990028
269,0.0
270,0.0
271,4166057.5727044675
272,0.0
273,7994650.515088435
274,0.0
717,5987834.733558327
730,0.0
779,5020089.9152224995
780,112697.35830849996
781,10222901.433269134
782,0.0
783,8950514.174125273
784,100467.74970225415
883,1044420.9233580048
922,1278183.9449134802
2,1, 1, 1, 0,19, 0.00,60.00,Sunday
7,430501.7583018221
8,526856.9629467264
167,181532.69425399767
168,222163.46884963018
267,1227245.5758438432
268,1501928.538990028
269,0.0
270,0.0
271,4374438.261683998
272,0.0
273,8302018.198681625
274,0.0
717,5793380.902583071
730,0.0
779,4827095.558107897
780,171894.02507356022
781,9965147.375990713
782,0.0
783,8694324.960499305
784,160854.5153463356
883,1230413.6905313479
922,1505805.7433227303
2,1, 1, 1, 0,20, 0.00,60.00,Sunday
7,430501.7583018221
8,526856.9629467264
167,215149.86003263463
168,263304.85218537936
267,1141338.3855347743
268,1396793.541260726
269,0.0
270,0.0
271,4429406.176367367
272,0.0
273,8338708.0153753
274,0.0
717,5846363.68150555
730,0.0
779,4880633.809139997
780,190045.84270580971
781,10069736.981453177
782,0.0
783,8799331.300107623
784,169267.48097333964
883,1173185.1467857037
922,1435768.2668891142
2,1, 1, 1, 0,21, 0.00,60.00,Sunday
7,430501.7583018221
8,526856.9629467264
167,215149.86003263463
168,263304.85218537936
267,1092248.5625010205
268,1336716.399701125
269,0.0
270,0.0
271,4455148.061201818
272,0.0
273,8401315.015355486
274,0.0
717,6044948.515520248
730,0.0
779,5060753.808758385
780,175642.37526623358
781,10417269.452236403
782,0.0
783,9122618.070365269
784,151003.76850651356
883,1073035.1952308265
922,1313202.683130288
2,1, 1, 1, 0,22, 0.00,60.00,Sunday
7,494829.6072434735
8,605582.7160307199
167,147915.5284753607
168,181022.08551388106
267,1043158.7394672667
268,1276639.2581415237
269,0.0
270,0.0
271,4388866.879132596
272,0.0
273,8304089.222146805
274,0.0
717,6107984.3331039585
730,0.0
779,5128772.232579434
780,164714.7405448098
781,10532530.308815531
782,0.0
783,9244542.230151037
784,142423.76500787406
883,872735.2921210723
922,1068071.5156126341
2,1, 1, 1, 0,23, 0.00,60.00,Sunday
7,494829.6072434735
8,605582.7160307199
167,80681.19691808679
168,98739.31884238274
267,871344.3588491287
268,1066369.2626829196
269,0.0
270,0.0
271,4269423.461434073
272,0.0
273,8111272.927557233
274,0.0
717,6212215.119115454
730,0.0
779,5245609.239182184
780,145174.31163754535
781,10637525.581648024
782,0.0
783,9366253.5808187
784,124346.64061040449
883,758278.2046297843
922,927996.5627454034
2,1, 1, 1, 0,24, 0.00,60.00,Sunday
7,494829.6072434735
8,605582.7160307199
167,33617.16577863696
168,41141.38333574915
267,711802.4339894291
268,871118.5526142161
269,0.0
270,0.0
271,4164086.99812714
272,0.0
273,7964902.168166012
274,0.0
717,6419683.296040252
730,0.0
779,5452553.345256006
780,118673.8919503087
781,10908539.355905773
782,0.0
783,9636781.664621444
784,99531.25079116043
883,414906.9421559196
922,507771.70414371137
2,2, 1, 2, 0, 1, 0.00,60.00,Monday
7,494829.6072434735
8,605582.7160307199
167,13446.86654911526
168,16456.553625153472
267,552260.5091297295
268,675867.8425455126
269,0.0
270,0.0
271,3951901.425721213
272,0.0
273,7633225.922663926
274,0.0
717,6479427.603398663
730,0.0
779,5533574.991641194
780,87829.84914100611
781,10912044.898907958
782,0.0
783,9668556.28997808
784,74536.71507044829
883,114484.04587980142
922,140107.94510111626
2,2, 1, 2, 0, 2, 0.00,60.00,Monday
7,494829.6072434735
8,605582.7160307199
167,13446.86654911526
168,16456.553625153472
267,503170.68609597575
268,615790.7009859114
269,0.0
270,0.0
271,3826935.1134180543
272,0.0
273,7471925.593532572
274,0.0
717,6579857.157653645
730,0.0
779,5626811.178514525
780,41408.92456759302
781,11031649.821021123
782,0.0
783,9779021.058071582
784,28857.55599420945
883,57242.02293990071
922,70053.97255055813
2,2, 1, 2, 0, 3, 0.00,60.00,Monday
7,494829.6072434735
8,605582.7160307199
167,13446.86654911526
168,16456.553625153472
267,478625.774579099
268,585752.1302061109
269,0.0
270,0.0
271,3842501.6386696748
272,0.0
273,7557398.823012455
274,0.0
717,6718561.124176585
730,0.0
779,5749562.976369964
780,25902.375857134983
781,11275849.60709035
782,0.0
783,10002487.917690769
784,19579.517269970256
883,14310.505734975177
922,17513.493137639533
2,2, 1, 2, 0, 4, 0.00,60.00,Monday
7,494829.6072434735
8,605582.7160307199
167,13446.86654911526
168,16456.553625153472
267,466353.3188206604
268,570732.8448162106
269,0.0
270,0.0
271,3737709.407890285
272,0.0
273,7366618.200416601
274,0.0
717,6597838.492652647
730,0.0
779,5650453.647823788
780,20979.344392232862
781,11048445.162750157
782,0.0
783,9803551.258285198
784,16674.153311986265
883,14310.505734975177
922,17513.49313763953
2,2, 1, 2, 0, 5, 0.00,60.00,Monday
7,494829.6072434735
8,605582.7160307199
167,40340.598459043395
168,49369.65942119137
267,466353.3188206604
268,570732.8448162106
269,0.0
270,0.0
271,3777202.9712777087
272,0.0
273,7444734.656004123
274,0.0
717,6598638.700453974
730,0.0
779,5645126.252407219
780,25022.78423404673
781,11037854.461181788
782,0.0
783,9784922.113119528
784,22577.7985339937
883,57242.02293990071
922,70053.97255055813
2,2, 1, 2, 0, 6, 0.00,60.00,Monday
7,494829.6072434735
8,605582.7160307199
167,87404.6307867956
168,106967.596382094
267,527715.5976128526
268,645829.2717657121
269,0.0
270,0.0
271,3913282.4161420166
272,0.0
273,7679040.735481257
274,0.0
717,6580775.637474868
730,0.0
779,5612057.318364627
780,40164.32222396466
781,11064612.782277593
782,0.0
783,9791606.33769012
784,37705.7608235782
883,386383.6548443298
922,472864.3147162674
2,2, 1, 2, 0, 7, 0.00,60.00,Monday
7,494829.6072434735
8,605582.7160307199
167,94128.06346720205
168,115195.8724675362
267,662712.6109556755
268,811041.4110546153
269,0.0
270,0.0
271,4179001.2038372383
272,0.0
273,8071282.408957002
274,0.0
717,6321425.080491279
730,0.0
779,5353892.009286784
780,98603.78146730326
781,10737152.77021555
782,0.0
783,9465309.744270656
784,95068.91330529361
883,1345187.5390876667
922,1646268.354938116
2,2, 1, 2, 0, 8, 0.00,60.00,Monday
7,420605.1661569526
8,514745.30862611195
167,87404.6307867956
168,106967.596382094
267,797709.6242984982
268,976253.5503435184
269,0.0
270,0.0
271,4356997.042726568
272,0.0
273,8230275.662047548
274,0.0
717,6068311.31061287
730,0.0
779,5124123.232482454
780,179054.44371387904
781,10321111.58778061
782,0.0
783,9079208.174592204
784,164721.89732677626
883,1430904.2232817214
922,1751170.2073404964
2,2, 1, 2, 0, 9, 0.00,60.00,Monday
7,192983.54682495468
8,236177.25925198084
167,34965.563263418175
168,38759.599349157405
267,809982.0800569366
268,991272.8357334186
269,62046.51206733446
270,72695.87798983445
271,4344272.640629626
272,0.0
273,8136548.580139244
274,0.0
717,6059445.905556026
730,0.0
779,5131192.123694991
780,199879.04911483664
781,10213764.732022062
782,0.0
783,8992483.25315299
784,176671.98326957913
883,1373808.550557617
922,1681295.341213395
2,2, 1, 2, 0,10, 0.00,60.00,Monday
7,123707.40181086838
8,151395.67900767998
167,14964.430741853985
168,11753.406941767485
267,822254.5358153752
268,1006292.1211233188
269,196613.7783892213
270,233945.5341917851
271,4297710.188647204
272,0.0
273,8055395.8961247485
274,0.0
717,5944986.927168946
730,0.0
779,5016547.414604467
780,190721.4696569625
781,9942554.132012643
782,0.0
783,8721033.42806938
784,164876.82724735577
883,1202082.4817379152
922,1471133.4235617209
2,2, 1, 2, 0,11, 0.00,60.00,Monday
7,123707.40181086838
8,151395.67900767998
167,8419.172156346138
168,9873.931738811369
267,846799.4473322516
268,1036330.6919031191
269,316458.4142899371
270,374467.75499457173
271,4075810.186977182
272,0.0
273,7637550.639704352
274,0.0
717,5395292.9214637885
730,0.0
779,4525409.845487708
780,199551.54580818018
781,8886847.33667694
782,0.0
783,7742353.723134696
784,181197.04116586622
883,1087598.435858114
922,1331025.4784606043
2,2, 1, 2, 0,12, 0.00,60.00,Monday
7,123707.40181086838
8,151395.67900767998
167,8068.119572978441
168,9873.931738811369
267,859071.9030906901
268,1051349.9772930194
269,376160.94675999
270,441429.58412699634
271,3785563.386571282
272,0.0
273,7073973.769084326
274,0.0
717,4874717.599749952
730,0.0
779,4068538.7742613717
780,196696.4083210527
781,7890257.3773883125
782,0.0
783,6829476.356611442
784,178334.70955917588
883,872940.849833486
922,1068323.0813960114
2,2, 1, 2, 0,13, 0.00,60.00,Monday
7,123707.40181086838
8,151395.67900767998
167,9815.935290477477
168,9873.931738811369
267,846799.4473322516
268,1036330.6919031191
269,246226.18933482651
270,292461.58537435334
271,3588598.760390791
272,0.0
273,6788813.956526029
274,0.0
717,5166582.732057201
730,0.0
779,4333898.579919805
780,104934.50264694898
781,8403129.679421926
782,0.0
783,7307832.88695569
784,72909.6737934101
883,758456.8039536845
922,928215.1362948951
2,2, 1, 2, 0,14, 0.00,60.00,Monday
7,123707.40181086838
8,151395.67900767998
167,9812.752830441605
168,9873.931738811369
267,809982.0800569366
268,991272.8357334186
269,233114.38560254828
270,277295.9678670669
271,3619325.695726664
272,0.0
273,6934281.7381421905
274,0.0
717,5335656.765351624
730,0.0
779,4492422.090670897
780,103703.22461844326
781,8715189.583213054
782,0.0
783,7606419.865172287
784,90439.30476341702
883,672593.7695438333
922,823134.177469058
2,2, 1, 2, 0,15, 0.00,60.00,Monday
7,123707.40181086838
8,151395.67900767998
167,9622.877597439929
168,9873.931738811369
267,797709.6242984982
268,976253.5503435184
269,250827.8304961031
270,286789.8049033688
271,3564684.2795423605
272,0.0
273,6842297.159053423
274,0.0
717,5384270.546318856
730,0.0
779,4535419.632892343
780,86102.12826509675
781,8794815.09366123
782,0.0
783,7678700.7866702
784,68992.32333472301
883,586730.7351339824
922,718053.2186432208
2,2, 1, 2, 0,16, 0.00,60.00,Monday
7,123707.40181086838
8,151395.67900767998
167,30651.601728415775
168,28003.05201102572
267,834526.9915738135
268,1021311.406513219
269,163290.45967575297
270,198400.3295498861
271,3647947.7110415543
272,0.0
273,7024366.485942702
274,0.0
717,5526915.119302353
730,0.0
779,4665334.972283806
780,95712.53184128612
781,9125977.667866075
782,0.0
783,7993244.157630139
784,86768.36566149333
883,672593.7695438333
922,823134.177469058
2,2, 1, 2, 0,17, 0.00,60.00,Monday
7,148448.88217304208
8,181674.814809216
167,91275.41687406655
168,109963.90997015739
267,981796.4606750747
268,1201542.8311920224
269,13963.165544083822
270,21615.14420329862
271,3528949.245871069
272,0.0
273,6753817.446385026
274,0.0
717,5307740.29105218
730,0.0
779,4486341.823406052
780,106496.72865041925
781,8798498.225600308
782,0.0
783,7718428.975553121
784,94705.2903180842
883,787077.815423635
922,963242.1225701745
2,2, 1, 2, 0,18, 0.00,60.00,Monday
7,257311.39576660626
8,314903.0123359744
167,134468.66192624546
168,164565.53188872756
267,1227245.5758438432
268,1501928.538990028
269,0.0
270,0.0
271,3428905.143245549
272,0.0
273,6510766.723484813
274,0.0
717,4723869.62699929
730,0.0
779,3949496.5029993095
780,126929.16661000506
781,7844335.169311952
782,0.0
783,6825908.690461942
784,114692.52764919287
883,1044666.918653188
922,1278484.9990476859
2,2, 1, 2, 0,19, 0.00,60.00,Monday
7,430501.7583018221
8,526856.9629467264
167,181532.69425399767
168,222163.46884963018
267,1227245.5758438432
268,1501928.538990028
269,0.0
270,0.0
271,3562031.9688553205
272,0.0
273,6696643.659382499
274,0.0
717,4536434.903535886
730,0.0
779,3757477.1762215206
780,157029.90163669887
781,7585633.496864953
782,0.0
783,6560903.755244566
784,140432.43399186514
883,1230703.4932078656
922,1506160.409837
2,2, 1, 2, 0,20, 0.00,60.00,Monday
7,430501.7583018221
8,526856.9629467264
167,215149.86003263463
168,263304.85218537936
267,1141338.3855347743
268,1396793.541260726
269,0.0
270,0.0
271,3729681.9251675243
272,0.0
273,6983564.469974387
274,0.0
717,4779285.181402911
730,0.0
779,3965703.6129977177
780,168280.49111058554
781,8039886.83969507
782,0.0
783,6969467.00422631
784,145286.5775381886
883,1173461.4702679648
922,1436106.4372864417
2,2, 1, 2, 0,21, 0.00,60.00,Monday
7,430501.7583018221
8,526856.9629467264
167,215149.86003263463
168,263304.85218537936
267,1092248.5625010205
268,1336716.399701125
269,0.0
270,0.0
271,3900006.109295154
272,0.0
273,7334355.06923072
274,0.0
717,5180355.108013167
730,0.0
779,4310805.863469401
780,155547.6744834875
781,8765543.259921767
782,0.0
783,7621616.543527683
784,129711.21123684489
883,1073287.9301231385
922,1313511.985322965
2,2, 1, 2, 0,22, 0.00,60.00,Monday
7,494829.6072434735
8,605582.7160307199
167,147915.5284753607
168,181022.08551388106
267,1043158.7394672667
268,1276639.2581415237
269,0.0
270,0.0
271,4050218.469556858
272,0.0
273,7660660.157537998
274,0.0
717,5554138.056103488
730,0.0
779,4637728.956583592
780,151475.05058267756
781,9453066.425273495
782,0.0
783,8247677.525326974
784,129401.49183656677
883,872940.849833486
922,1068323.0813960114
2,2, 1, 2, 0,23, 0.00,60.00,Monday
7,494829.6072434735
8,605582.7160307199
167,80681.19691808679
168,98739.31884238274
267,871344.3588491287
268,1066369.2626829196
269,0.0
270,0.0
271,4046225.100213321
272,0.0
273,7685973.065253824
274,0.0
717,5842968.625796085
730,0.0
779,4913354.336546925
780,139932.59531283457
781,9917851.285671948
782,0.0
783,8695228.376539301
784,119904.87307192787
883,758456.8039536845
922,928215.1362948951
2,2, 1, 2, 0,24, 0.00,60.00,Monday
7,494829.6072434735
8,605582.7160307199
167,33617.16577863696
168,41141.38333574915
267,711802.4339894291
268,871118.5526142161
269,0.0
270,0.0
271,3909767.7479142984
272,0.0
273,7459226.065676421
274,0.0
717,5953208.039956944
730,0.0
779,5041722.763869879
780,130970.74771369623
781,10014880.004465489
782,0.0
783,8816218.4269648
784,115204.00341354807
883,415004.66631428024
922,507891.3009915465
2,3, 1, 3, 0, 1, 0.00,60.00,Tuesday
7,494829.6072434735
8,605582.7160307199
167,13446.86654911526
168,16456.553625153472
267,552260.5091297295
268,675867.8425455126
269,0.0
270,0.0
271,3645702.073494713
272,0.0
273,7031642.773077031
274,0.0
717,6056587.426931824
730,0.0
779,5156810.214918366
780,72724.35349831604
781,10087175.040329129
782,0.0
783,8904201.114053201
784,53748.30780547163
883,114510.39110835319
922,140140.18693714886
2,3, 1, 3, 0, 2, 0.00,60.00,Tuesday
7,494829.6072434735
8,605582.7160307199
167,13446.86654911526
168,16456.553625153472
267,503170.68609597575
268,615790.7009859114
269,0.0
270,0.0
271,3240415.6824582713
272,0.0
273,6340447.371649791
274,0.0
717,5729810.618961041
730,0.0
779,4890297.906150355
780,21435.69282442154
781,9428248.205692695
782,0.0
783,8324883.574776657
784,7757.529519612035
883,57255.19555417659
922,70070.09346857443
2,3, 1, 3, 0, 3, 0.00,60.00,Tuesday
7,494829.6072434735
8,605582.7160307199
167,13446.86654911526
168,16456.553625153472
267,478625.774579099
268,585752.1302061109
269,0.0
270,0.0
271,3146736.0764665455
272,0.0
273,6195207.125731445
274,0.0
717,5583942.138477253
730,0.0
779,4766561.2002397
780,20465.256074726407
781,9097526.512429738
782,0.0
783,8023430.818021132
784,15960.983593682795
883,14313.798888544148
922,17517.523367143607
2,3, 1, 3, 0, 4, 0.00,60.00,Tuesday
7,494829.6072434735
8,605582.7160307199
167,13446.86654911526
168,16456.553625153472
267,466353.3188206604
268,570732.8448162106
269,0.0
270,0.0
271,3126317.993695981
272,0.0
273,6179374.437219934
274,0.0
717,5705107.451884363
730,0.0
779,4879939.466836537
780,2415.799054265608
781,9318362.6796815
782,0.0
783,8239304.336077515
784,949.8819442142121
883,14313.798888544148
922,17517.523367143607
2,3, 1, 3, 0, 5, 0.00,60.00,Tuesday
7,494829.6072434735
8,605582.7160307199
167,40340.598459043395
168,49369.65942119137
267,466353.3188206604
268,570732.8448162106
269,0.0
270,0.0
271,3184166.500246276
272,0.0
273,6320855.145048806
274,0.0
717,5819869.140862681
730,0.0
779,4980921.064209877
780,0.0
781,9555553.367782395
782,0.0
783,8454731.70393686
784,0.0
883,57255.19555417659
922,70070.09346857443
2,3, 1, 3, 0, 6, 0.00,60.00,Tuesday
7,494829.6072434735
8,605582.7160307199
167,87404.6307867956
168,106967.596382094
267,527715.5976128526
268,645829.2717657121
269,0.0
270,0.0
271,3375570.8455259097
272,0.0
273,6652882.098406517
274,0.0
717,5793567.200619258
730,0.0
779,4928700.839430152
780,23563.87193554274
781,9577430.381733438
782,0.0
783,8441327.94360718
784,24076.121847777904
883,386472.569990692
922,472973.13091287727
2,3, 1, 3, 0, 7, 0.00,60.00,Tuesday
7,494829.6072434735
8,605582.7160307199
167,94128.06346720205
168,115195.8724675362
267,662712.6109556755
268,811041.4110546153
269,0.0
270,0.0
271,3784800.490540703
272,0.0
273,7277232.029513376
274,0.0
717,5530450.159977057
730,0.0
779,4668032.942310447
780,131221.74520892417
781,9233765.768543523
782,0.0
783,8100005.43404009
784,137015.6063116653
883,1345497.0955231497
922,1646647.1965114991
2,3, 1, 3, 0, 8, 0.00,60.00,Tuesday
7,420605.1661569526
8,514745.30862611195
167,87404.6307867956
168,106967.596382094
267,797709.6242984982
268,976253.5503435184
269,0.0
270,0.0
271,4128855.910001547
272,0.0
273,7733348.947874626
274,0.0
717,5567743.453913571
730,0.0
779,4685520.326739735
780,210452.99116331874
781,9349321.142213756
782,0.0
783,8188633.269431863
784,196411.04826484935
883,1431233.5049603023
922,1751573.189074684
2,3, 1, 3, 0, 9, 0.00,60.00,Tuesday
7,192983.54682495468
8,236177.25925198084
167,31508.71404761873
168,31693.677679180884
267,809982.0800569366
268,991272.8357334186
269,123874.47431029659
270,140882.59143299435
271,4230524.868767561
272,0.0
273,7878030.375120733
274,0.0
717,5714146.255030151
730,0.0
779,4816908.703431297
780,225809.01995380252
781,9582268.819308069
782,0.0
783,8401584.100937862
784,203228.2363619234
883,1374124.693300238
922,1681682.2432457865
2,3, 1, 3, 0,10, 0.00,60.00,Tuesday
7,123707.40181086838
8,151395.67900767998
167,10921.226888801959
168,9932.160665523077
267,822254.5358153752
268,1006292.1211233188
269,314360.83423990005
270,388563.13907149754
271,4152727.6966758957
272,0.0
273,7744100.350699576
274,0.0
717,5533893.908257429
730,0.0
779,4636376.492611123
780,204888.33355113445
781,9180379.867054714
782,0.0
783,7999359.188493853
784,177306.8795915212
883,1202359.1066377086
922,1471471.962840063
2,3, 1, 3, 0,11, 0.00,60.00,Tuesday
7,123707.40181086838
8,151395.67900767998
167,8068.119572978441
168,9873.931738811369
267,846799.4473322516
268,1036330.6919031191
269,553719.4404564844
270,657665.9695168321
271,3962272.8012414495
272,0.0
273,7429080.168156812
274,0.0
717,4981550.523855384
730,0.0
779,4105140.1210061302
780,173760.66182416072
781,8112742.920939847
782,0.0
783,6959674.6699376935
784,147360.18083288247
883,1087848.7155293555
922,1331331.7759029139
2,3, 1, 3, 0,12, 0.00,60.00,Tuesday
7,123707.40181086838
8,151395.67900767998
167,8933.790654502394
168,9873.931738811369
267,859071.9030906901
268,1051349.9772930194
269,296962.73135738034
270,347011.3624013057
271,3777033.6843712856
272,0.0
273,7130247.654092746
274,0.0
717,5188665.379737895
730,0.0
779,4326881.462997728
780,138387.67125244113
781,8521214.831116214
782,0.0
783,7387598.364358532
784,112499.88062765369
883,873141.7322011929
922,1068568.9253957602
2,3, 1, 3, 0,13, 0.00,60.00,Tuesday
7,123707.40181086838
8,151395.67900767998
167,8068.119572978441
168,9873.931738811369
267,846799.4473322516
268,1036330.6919031191
269,350797.64056996966
270,454815.47585314244
271,3590498.811350275
272,0.0
273,6814927.711431213
274,0.0
717,4990049.46033725
730,0.0
779,4168114.492796009
780,133228.64357693258
781,8046225.202750187
782,0.0
783,6965193.674234541
784,117133.10489818569
883,758631.34109284
922,928428.7384586112
2,3, 1, 3, 0,14, 0.00,60.00,Tuesday
7,123707.40181086838
8,151395.67900767998
167,8068.119572978441
168,9873.931738811369
267,809982.0800569366