Program Version,EnergyPlus, Version 9.6.0-4b123cf80f, YMD=2022.01.25 17:22
1,5,Environment Title[],Latitude[deg],Longitude[deg],Time Zone[],Elevation[m]
2,8,Day of Simulation[],Month[],Day of Month[],DST Indicator[1=yes 0=no],Hour[],StartMinute[],EndMinute[],DayType
3,5,Cumulative Day of Simulation[],Month[],Day of Month[],DST Indicator[1=yes 0=no],DayType  ! When Daily Report Variables Requested
4,2,Cumulative Days of Simulation[],Month[]  ! When Monthly Report Variables Requested
5,1,Cumulative Days of Simulation[] ! When Run Period Report Variables Requested
6,1,Calendar Year of Simulation[] ! When Annual Report Variables Requested
7,1,ROOM_7_A720434D,Zone People Total Heating Energy [J] !Hourly
129,1,ROOM_7_A720434D,Zone Lights Electricity Energy [J] !Hourly
203,1,ROOM_7_A720434D,Zone Electric Equipment Electricity Energy [J] !Hourly
204,1,ROOM_7_A720434D,Zone Windows Total Transmitted Solar Radiation Energy [J] !Hourly
205,1,ROOM_7_A720434D,Zone Infiltration Total Heat Loss Energy [J] !Hourly
206,1,ROOM_7_A720434D,Zone Infiltration Total Heat Gain Energy [J] !Hourly
586,1,ROOM_7_A720434D IDEAL LOADS AIR SYSTEM,Zone Ideal Loads Supply Air Total Heating Energy [J] !Hourly
599,1,ROOM_7_A720434D IDEAL LOADS AIR SYSTEM,Zone Ideal Loads Supply Air Total Cooling Energy [J] !Hourly
648,1,ROOM_7_A720434D IDEAL LOADS AIR SYSTEM,Zone Ideal Loads Zone Total Heating Energy [J] !Hourly
649,1,ROOM_7_A720434D IDEAL LOADS AIR SYSTEM,Zone Ideal Loads Zone Total Cooling Energy [J] !Hourly
748,1,2019::MIDRISEAPARTMENT::APARTMENT_SHW..ROOM_7_A720434D,Water Use Equipment Heating Energy [J] !Hourly
End of Data Dictionary
1,RUN PERIOD 1,  47.44,-122.31,  -8.00, 122.00
2,1, 1, 1, 0, 1, 0.00,60.00,Sunday
7,450320.58437295095
129,12237.345368469836
203,502585.68112525425
204,0.0
205,9542934.474179538
206,0.0
586,22742684.230955508
599,0.0
648,20805848.08543496
649,183238.82330080357
748,98859.36432628236
2,1, 1, 1, 0, 2, 0.00,60.00,Sunday
7,450320.58437295095
129,12237.345368469836
203,457911.39835856494
204,0.0
205,9296750.487333471
206,0.0
586,23437010.94474151
599,0.0
648,21444788.91208738
649,64075.988451359626
748,49429.68216314118
2,1, 1, 1, 0, 3, 0.00,60.00,Sunday
7,450320.58437295095
129,12237.345368469836
203,435574.25697522034
204,0.0
205,9098149.235867608
206,0.0
586,23373844.50244137
599,0.0
648,21379004.554891482
649,7287.626886934595
748,12357.420540785295
2,1, 1, 1, 0, 4, 0.00,60.00,Sunday
7,450320.58437295095
129,12237.345368469836
203,424405.686283548
204,0.0
205,8828395.505460128
206,0.0
586,22872326.393133678
599,0.0
648,20930276.972798217
649,624.3863594692812
748,12357.420540785295
2,1, 1, 1, 0, 5, 0.00,60.00,Sunday
7,450320.58437295095
129,36712.035023992765
203,424405.686283548
204,0.0
205,8482759.87000169
206,0.0
586,22095589.75165406
599,0.0
648,20228533.85981457
649,0.0
748,49429.68216314118
2,1, 1, 1, 0, 6, 0.00,60.00,Sunday
7,450320.58437295095
129,79542.74327292883
203,480248.53974190966
204,0.0
205,7838814.588181012
206,0.0
586,20695115.422510765
599,0.0
648,18968232.394925896
649,0.0
748,333650.3546012029
2,1, 1, 1, 0, 7, 0.00,60.00,Sunday
7,450320.58437295095
129,85661.41541645538
203,603102.8173503052
204,0.0
205,7951358.357919257
206,0.0
586,21204440.45879717
599,0.0
648,19474282.482799374
649,7351.938005241027
748,1161597.5308338178
2,1, 1, 1, 0, 8, 0.00,60.00,Sunday
7,382772.49671700835
129,79542.74327292883
203,725957.0949587006
204,0.0
205,8613479.631943734
206,0.0
586,22397657.913716737
599,0.0
648,20604005.060076937
649,102811.67623736728
748,1235615.6776110358
2,1, 1, 1, 0, 9, 0.00,60.00,Sunday
7,175625.0279054509
129,35270.1177480946
203,737125.6656503731
204,332014.22706671397
205,8509054.08920877
206,0.0
586,20199351.74211768
599,0.0
648,18484469.612807408
649,180219.91838954965
748,1186312.3719153886
2,1, 1, 1, 0,10, 0.00,60.00,Sunday
7,112580.14609323774
129,21098.69392372946
203,748294.2363420454
204,1103854.51109206
205,8113496.105815809
206,0.0
586,16962796.88621586
599,0.0
648,15302030.483193278
649,145592.1415132725
748,1038023.3254259647
2,1, 1, 1, 0,11, 0.00,60.00,Sunday
7,112580.14609323774
129,19300.942668307158
203,770631.3777253898
204,1562114.2688960482
205,7768818.623837746
206,0.0
586,14127358.340153188
599,0.0
648,12543597.398235071
649,150866.1161614871
748,939163.9610996821
2,1, 1, 1, 0,12, 0.00,60.00,Sunday
7,112580.14609323774
129,20734.318006488105
203,781799.9484170622
204,1076770.7280380335
205,7283902.664763989
206,0.0
586,14003640.397990773
599,0.0
648,12509728.536335984
649,140063.28487583544
748,753802.6529879029
2,1, 1, 1, 0,13, 0.00,60.00,Sunday
7,112580.14609323774
129,20098.722099314706
203,770631.3777253898
204,1255707.151390463
205,8016751.916488624
206,0.0
586,19310012.38456756
599,0.0
648,17608942.646275252
649,75488.81600941296
748,654943.2886616207
2,1, 1, 1, 0,14, 0.00,60.00,Sunday
7,112580.14609323774
129,18877.35165366069
203,737125.6656503731
204,1678116.4034790257
205,8770509.587328082
206,0.0
586,21958382.549513273
599,0.0
648,20136229.3256312
649,126472.53508317954
748,580798.7654169089
2,1, 1, 1, 0,15, 0.00,60.00,Sunday
7,112580.14609323774
129,20573.63393357211
203,725957.0949587006
204,1203745.7560522836
205,8554235.671155764
206,0.0
586,18274178.48483265
599,0.0
648,16482151.570172662
649,110143.41162083327
748,506654.2421721971
2,1, 1, 1, 0,16, 0.00,60.00,Sunday
7,112580.14609323774
129,39668.79673344387
203,759462.8070337174
204,589347.6420981729
205,8679020.700430796
206,0.0
586,19288704.891825557
599,0.0
648,17454387.217865977
649,85213.61820084821
748,580798.7654169089
2,1, 1, 1, 0,17, 0.00,60.00,Sunday
7,135096.17531188528
129,85094.58583426251
203,893485.6553337852
204,74480.92488012207
205,8734187.118983684
206,0.0
586,21007335.274638377
599,0.0
648,19142091.290862206
649,54603.529070100376
748,679658.1297431911
2,1, 1, 1, 0,18, 0.00,60.00,Sunday
7,234166.70387393452
129,122373.45044044813
203,1116857.0691672317
204,0.0
205,8862230.203632304
206,0.0
586,21046938.507862214
599,0.0
648,19181864.307375234
649,78543.72871050946
748,902091.6994773264
2,1, 1, 1, 0,19, 0.00,60.00,Sunday
7,391778.90840446734
129,165204.15868938417
203,1116857.0691672317
204,0.0
205,9161706.230065316
206,0.0
586,20857283.17691431
599,0.0
648,18994223.747543268
649,153321.73388753636
748,1062738.166507535
2,1, 1, 1, 0,20, 0.00,60.00,Sunday
7,391778.90840446734
129,195797.52156985042
203,1038677.0743255256
204,0.0
205,9201120.057647921
206,0.0
586,21258041.432519533
599,0.0
648,19395548.578341585
649,163483.69861734827
748,1013308.4843443942
2,1, 1, 1, 0,21, 0.00,60.00,Sunday
7,391778.90840446734
129,195797.52156985042
203,994002.791558836
204,0.0
205,9282960.692825945
206,0.0
586,22054420.236352757
599,0.0
648,20156457.88705125
649,138877.70992394726
748,926806.5405588971
2,1, 1, 1, 0,22, 0.00,60.00,Sunday
7,450320.58437295095
129,134610.795808918
203,949328.5087921469
204,0.0
205,9209921.149156239
206,0.0
586,22357888.045774072
599,0.0
648,20469830.046274696
649,133436.14878041844
748,753802.6529879029
2,1, 1, 1, 0,23, 0.00,60.00,Sunday
7,450320.58437295095
129,73424.07004798553
203,792968.5191087344
204,0.0
205,9037777.861558191
206,0.0
586,22074820.66021097
599,0.0
648,20211488.464440137
649,118867.69420949223
748,654943.2886616207
2,1, 1, 1, 0,24, 0.00,60.00,Sunday
7,450320.58437295095
129,30593.36288046622
203,647777.1001169943
204,0.0
205,8938545.329066826
206,0.0
586,22017742.878558002
599,0.0
648,20153968.56957444
649,95797.49735549229
748,358365.19568277354
2,2, 1, 2, 0, 1, 0.00,60.00,Monday
7,450320.58437295095
129,12237.345368469836
203,502585.68112525425
204,0.0
205,8660173.530220615
206,0.0
586,21638882.24889387
599,0.0
648,19816971.12417855
649,81724.38647346554
748,98883.31879516765
2,2, 1, 2, 0, 2, 0.00,60.00,Monday
7,450320.58437295095
129,12237.345368469836
203,457911.39835856494
204,0.0
205,8522970.602265403
206,0.0
586,21664861.32287044
599,0.0
648,19829861.908695474
649,29580.436249440027
748,49441.659397583826
2,2, 1, 2, 0, 3, 0.00,60.00,Monday
7,450320.58437295095
129,12237.345368469836
203,435574.25697522034
204,0.0
205,8618053.290917132
206,0.0
586,22039884.01074418
599,0.0
648,20174496.04463037
649,14967.306084297343
748,12360.414849395956
2,2, 1, 2, 0, 4, 0.00,60.00,Monday
7,450320.58437295095
129,12237.345368469836
203,424405.686283548
204,0.0
205,8405052.341707552
206,0.0
586,21649806.09484627
599,0.0
648,19826149.152413964
649,12382.191067719396
748,12360.414849395956
2,2, 1, 2, 0, 5, 0.00,60.00,Monday
7,450320.58437295095
129,36712.035023992765
203,424405.686283548
204,0.0
205,8489861.42425072
206,0.0
586,22033293.26184583
599,0.0
648,20197844.277769335
649,20140.560509909665
748,49441.659397583826
2,2, 1, 2, 0, 6, 0.00,60.00,Monday
7,450320.58437295095
129,79542.74327292883
203,480248.53974190966
204,0.0
205,8703274.600588396
206,0.0
586,24018279.8310342
599,0.0
648,22153242.37215475
649,33143.739637306135
748,333731.2009336908
2,2, 1, 2, 0, 7, 0.00,60.00,Monday
7,450320.58437295095
129,85661.41541645538
203,603102.8173503052
204,0.0
205,8949747.513622364
206,0.0
586,22095676.55840251
599,0.0
648,20231559.22273243
649,78511.04425936646
748,1161878.9958432198
2,2, 1, 2, 0, 8, 0.00,60.00,Monday
7,382772.49671700835
129,79542.74327292883
203,725957.0949587006
204,0.0
205,8985438.139974907
206,0.0
586,20945473.850891486
599,0.0
648,19124362.19524136
649,138757.42993367786
748,1235915.077850004
2,2, 1, 2, 0, 9, 0.00,60.00,Monday
7,175625.0279054509
129,35021.50066724537
203,737125.6656503731
204,339908.88485094643
205,8893618.072563658
206,0.0
586,20018993.6711829
599,0.0
648,18228091.51794813
649,156471.8908870378
748,1186599.8255420118
2,2, 1, 2, 0,10, 0.00,60.00,Monday
7,112580.14609323774
129,20775.65627723512
203,748294.2363420454
204,1169982.9770383283
205,8854753.271160522
206,0.0
586,18162801.06330624
599,0.0
648,16371781.832088685
649,150699.2808111558
748,1038274.8473492601
2,2, 1, 2, 0,11, 0.00,60.00,Monday
7,112580.14609323774
129,18169.647195850055
203,770631.3777253898
204,1933582.160139206
205,8441781.462534947
206,0.0
586,15122293.158298021
599,0.0
648,13444386.798783867
649,188915.33403698704
748,939391.5285540929
2,2, 1, 2, 0,12, 0.00,60.00,Monday
7,112580.14609323774
129,16675.89128007461
203,781799.9484170622
204,2301167.7715936126
205,7876087.076310126
206,0.0
586,12798412.915125417
599,0.0
648,11243487.352998445
649,202761.03084141566
748,753985.3058131532
2,2, 1, 2, 0,13, 0.00,60.00,Monday
7,112580.14609323774
129,19500.56391790114
203,770631.3777253898
204,1379174.9591645082
205,7553908.381204901
206,0.0
586,14540716.523698952
599,0.0
648,12935803.0271696
649,54838.82857197596
748,655101.9870179858
2,2, 1, 2, 0,14, 0.00,60.00,Monday
7,112580.14609323774
129,19918.004382873674
203,737125.6656503731
204,1289599.920430888
205,7715433.18522343
206,0.0
586,15380272.257935569
599,0.0
648,13755073.653006736
649,74840.07004509348
748,580939.4979216099
2,2, 1, 2, 0,15, 0.00,60.00,Monday
7,112580.14609323774
129,20267.77405892959
203,725957.0949587006
204,1308401.2290808437
205,7653047.7400565725
206,0.0
586,15606784.530981999
599,0.0
648,13971055.405264761
649,54628.483307531314
748,506777.00882523414
2,2, 1, 2, 0,16, 0.00,60.00,Monday
7,112580.14609323774
129,38920.06384262625
203,759462.8070337174
204,828865.1793856333
205,7859699.523207335
206,0.0
586,17293428.616526414
599,0.0
648,15633350.280740894
649,80327.99064719092
748,580939.4979216099
2,2, 1, 2, 0,17, 0.00,60.00,Monday
7,135096.17531188528
129,84980.15996635034
203,893485.6553337852
204,101153.29762328594
205,7534588.734735292
206,0.0
586,18071623.495880146
599,0.0
648,16488647.026617402
649,90169.47219063915
748,679822.8167167774
2,2, 1, 2, 0,18, 0.00,60.00,Monday
7,234166.70387393452
129,122373.45044044813
203,1116857.0691672317
204,0.0
205,7183898.238518246
206,0.0
586,17147680.147600852
599,0.0
648,15654696.659825396
649,104850.10710865771
748,902310.2840059047
2,2, 1, 2, 0,19, 0.00,60.00,Monday
7,391778.90840446734
129,165204.15868938417
203,1116857.0691672317
204,0.0
205,7312443.3675053865
206,0.0
586,16934345.330134142
599,0.0
648,15431732.408850051
649,122979.29285800365
748,1062995.677048052
2,2, 1, 2, 0,20, 0.00,60.00,Monday
7,391778.90840446734
129,195797.52156985042
203,1038677.0743255256
204,0.0
205,7607534.837558781
206,0.0
586,17882661.504798602
599,0.0
648,16312906.371846724
649,119275.46815227161
748,1013554.0176504683
2,2, 1, 2, 0,21, 0.00,60.00,Monday
7,391778.90840446734
129,195797.52156985042
203,994002.791558836
204,0.0
205,8017313.557311233
206,0.0
586,21465315.544172473
599,0.0
648,19787916.69086939
649,97585.71981570912
748,927031.1137046966
2,2, 1, 2, 0,22, 0.00,60.00,Monday
7,450320.58437295095
129,134610.795808918
203,949328.5087921469
204,0.0
205,8437034.687548902
206,0.0
586,21291181.15866115
599,0.0
648,19523920.322529763
649,105144.18289393361
748,753985.3058131532
2,2, 1, 2, 0,23, 0.00,60.00,Monday
7,450320.58437295095
129,73424.07004798553
203,792968.5191087344
204,0.0
205,8530576.891197264
206,0.0
586,20381505.819166906
599,0.0
648,18589313.077566367
649,106567.34620914304
748,655101.9870179858
2,2, 1, 2, 0,24, 0.00,60.00,Monday
7,450320.58437295095
129,30593.36288046622
203,647777.1001169943
204,0.0
205,8361165.181631278
206,0.0
586,20244167.989544205
599,0.0
648,18487432.508182406
649,117470.3055792281
748,358452.03063248267
2,3, 1, 3, 0, 1, 0.00,60.00,Tuesday
7,450320.58437295095
129,12237.345368469836
203,502585.68112525425
204,0.0
205,7966209.044168536
206,0.0
586,20009035.562246986
599,0.0
648,18275768.303303525
649,51630.39843209972
748,98906.63571934214
2,3, 1, 3, 0, 2, 0.00,60.00,Tuesday
7,450320.58437295095
129,12237.345368469836
203,457911.39835856494
204,0.0
205,7190105.351645617
206,0.0
586,18689410.08076297
599,0.0
648,17082933.423252515
649,962.2282618649479
748,49453.31785967107
2,3, 1, 3, 0, 3, 0.00,60.00,Tuesday
7,450320.58437295095
129,12237.345368469836
203,435574.25697522034
204,0.0
205,7035128.802269991
206,0.0
586,17895585.40302152
599,0.0
648,16323995.21189963
649,6388.020903470533
748,12363.329464917768
2,3, 1, 3, 0, 4, 0.00,60.00,Tuesday
7,450320.58437295095
129,12237.345368469836
203,424405.686283548
204,0.0
205,7014447.685314963
206,0.0
586,19610812.119793445
599,0.0
648,18045667.691923745
649,0.0
748,12363.329464917768
2,3, 1, 3, 0, 5, 0.00,60.00,Tuesday
7,450320.58437295095
129,36712.035023992765
203,424405.686283548
204,0.0
205,7137444.096209743
206,0.0
586,20919565.50116922
599,0.0
648,19333241.686585393
649,0.0
748,49453.31785967107
2,3, 1, 3, 0, 6, 0.00,60.00,Tuesday
7,450320.58437295095
129,79542.74327292883
203,480248.53974190966
204,0.0
205,7476354.522099743
206,0.0
586,19895857.973032396
599,0.0
648,18240490.205137856
649,9638.754276348482
748,333809.8955527797
2,3, 1, 3, 0, 7, 0.00,60.00,Tuesday
7,450320.58437295095
129,85661.41541645538
203,603102.8173503052
204,0.0
205,8049506.953077592
206,0.0
586,18969412.651698217
599,0.0
648,17307512.901059397
649,138275.59799915127
748,1162152.96970227
2,3, 1, 3, 0, 8, 0.00,60.00,Tuesday
7,382772.49671700835
129,79542.74327292883
203,725957.0949587006
204,0.0
205,8464616.910159744
206,0.0
586,19393387.28720577
599,0.0
648,17691420.556459673
649,194414.68918985646
748,1236206.5095950894
2,3, 1, 3, 0, 9, 0.00,60.00,Tuesday
7,175625.0279054509
129,33961.738841422986
203,737125.6656503731
204,788337.5983528481
205,8635242.278520238
206,0.0
586,19071950.18051243
599,0.0
648,17340654.080899794
649,202441.39999310684
748,1186879.6286321057
2,3, 1, 3, 0,10, 0.00,60.00,Tuesday
7,112580.14609323774
129,17914.92308134562
203,748294.2363420454
204,2493090.23759263
205,8524564.93089279
206,0.0
586,16185333.782520583
599,0.0
648,14453746.442290481
649,174376.8308592863
748,1038519.6750530925
2,3, 1, 3, 0,11, 0.00,60.00,Tuesday
7,112580.14609323774
129,9866.449334810106
203,770631.3777253898
204,5625995.126098355
205,8189007.4968854105
206,0.0
586,11251436.837152041
599,0.0
648,9560928.343510503
649,137246.31054493302
748,939613.0393337504
2,3, 1, 3, 0,12, 0.00,60.00,Tuesday
7,112580.14609323774
129,17619.11754075208
203,781799.9484170622
204,2123352.20121747
205,7879498.635890204
206,0.0
586,14293732.84189466
599,0.0
648,12631854.3612778
649,93025.8791245944
748,754163.0973599838
2,3, 1, 3, 0,13, 0.00,60.00,Tuesday
7,112580.14609323774
129,15237.962065174044
203,770631.3777253898
204,2848252.641681462
205,7568304.488806405
206,0.0
586,13024060.743959252
599,0.0
648,11439422.35648145
649,110572.27196043367
748,655256.4616406418
2,3, 1, 3, 0,14, 0.00,60.00,Tuesday
7,112580.14609323774
129,16685.498392254805
203,737125.6656503731
204,2613970.2753120833
205,7263143.2049954515
206,0.0
586,12397918.934420269
599,0.0
648,10868215.885710463
649,101924.89145092503
748,581076.484851135
2,3, 1, 3, 0,15, 0.00,60.00,Tuesday
7,112580.14609323774
129,21535.028143097305
203,725957.0949587006
204,896966.5654535798
205,7385847.302524891
206,0.0
586,15301986.276396412
599,0.0
648,13730024.782527102
649,82443.60563818863
748,506896.5080616285
2,3, 1, 3, 0,16, 0.00,60.00,Tuesday
7,112580.14609323774
129,40307.79975117786
203,759462.8070337174
204,487717.9107421146
205,7575456.112054888
206,0.0
586,17231102.59923269
599,0.0
648,15593236.32584307
649,46843.643191344745
748,581076.484851135
2,3, 1, 3, 0,17, 0.00,60.00,Tuesday
7,135096.17531188528
129,85160.67433228117
203,893485.6553337852
204,64847.126401214
205,7860550.3209762
206,0.0
586,18953922.639965646
599,0.0
648,17248268.911248054
649,33369.18054804737
748,679983.1205704772
2,3, 1, 3, 0,18, 0.00,60.00,Tuesday
7,234166.70387393452
129,122373.45044044813
203,1116857.0691672317
204,0.0
205,8393263.801309505
206,0.0
586,19413720.234512053
599,0.0
648,17680778.394896112
649,136144.73759950817
748,902523.0509389971
2,3, 1, 3, 0,19, 0.00,60.00,Tuesday
7,391778.90840446734
129,165204.15868938417
203,1116857.0691672317
204,0.0
205,8667892.539028859
206,0.0
586,19672714.805572268
599,0.0
648,17905995.79790567
649,161301.56381135638
748,1063246.333982928
2,3, 1, 3, 0,20, 0.00,60.00,Tuesday
7,391778.90840446734
129,195797.52156985042
203,1038677.0743255256
204,0.0
205,8689120.281506605
206,0.0
586,19705668.072507057
599,0.0
648,17949630.74106342
649,177566.61763586017
748,1013793.016123257
2,3, 1, 3, 0,21, 0.00,60.00,Tuesday
7,391778.90840446734
129,195797.52156985042
203,994002.791558836
204,0.0
205,8594585.314804107
206,0.0
586,19710580.578161478
599,0.0
648,17980284.455073066
649,186584.9544661216
748,927249.7098688326
2,3, 1, 3, 0,22, 0.00,60.00,Tuesday
7,450320.58437295095
129,134610.795808918
203,949328.5087921469
204,0.0
205,8553153.788528962
206,0.0
586,19890027.856373437
599,0.0
648,18160188.158556018
649,178069.3993787232
748,754163.0973599838
2,3, 1, 3, 0,23, 0.00,60.00,Tuesday
7,450320.58437295095
129,73424.07004798553
203,792968.5191087344
204,0.0
205,8393989.124049976
206,0.0
586,19872433.181170274
599,0.0
648,18142005.040083658
649,136005.48911175466
748,655256.4616406418
2,3, 1, 3, 0,24, 0.00,60.00,Tuesday
7,450320.58437295095
129,30593.36288046622
203,647777.1001169943
204,0.0
205,8216956.32275236
206,0.0
586,20328509.61082251
599,0.0
648,18560641.824943002
649,45984.63409652759
748,358536.55448261526
2,4, 1, 4, 0, 1, 0.00,60.00,Wednesday
7,450320.58437295095
129,12237.345368469836
203,502585.68112525425
204,0.0
205,8353222.696593763
206,0.0
586,22351996.75665094
599,0.0
648,20517983.45645287
649,3123.9752601592045
748,98929.30819371961
2,4, 1, 4, 0, 2, 0.00,60.00,Wednesday
7,450320.58437295095
129,12237.345368469836
203,457911.39835856494
204,0.0
205,8431131.869398072
206,0.0
586,23701774.79409936
599,0.0
648,21849051.72315438
649,0.0
748,49464.654096859806
2,4, 1, 4, 0, 3, 0.00,60.00,Wednesday
7,450320.58437295095
129,12237.345368469836
203,435574.25697522034
204,0.0
205,8575641.46944803
206,0.0
586,22356976.059605528
599,0.0
648,20490753.990266938
649,26609.7364696805
748,12366.163524214951
2,4, 1, 4, 0, 4, 0.00,60.00,Wednesday
7,450320.58437295095
129,12237.345368469836
203,424405.686283548
204,0.0
205,8769414.444330432
206,0.0
586,21928819.167435843
599,0.0
648,20027949.677747753
649,33849.158079017434
748,12366.163524214951
2,4, 1, 4, 0, 5, 0.00,60.00,Wednesday
7,450320.58437295095
129,36712.035023992765
203,424405.686283548
204,0.0
205,8947670.178544143
206,0.0
586,22638960.346872557
599,0.0
648,20713836.17263508
649,47735.60470117063
748,49464.65409685981
2,4, 1, 4, 0, 6, 0.00,60.00,Wednesday
7,450320.58437295095
129,79542.74327292883
203,480248.53974190966
204,0.0
205,9283348.882175809
206,0.0
586,23469424.17058345
599,0.0
648,21503771.415695116
649,77925.04037136078
748,333886.4151538037
2,4, 1, 4, 0, 7, 0.00,60.00,Wednesday
7,450320.58437295095
129,85661.41541645538
203,603102.8173503052
204,0.0
205,9314181.908516835
206,0.0
586,22800719.247974843
599,0.0
648,20883588.482537627
649,127022.97056572844
748,1162419.3712762054
2,4, 1, 4, 0, 8, 0.00,60.00,Wednesday
7,382772.49671700835
129,79542.74327292883
203,725957.0949587006
204,0.0
205,9380776.604365574
206,0.0
586,22202642.825955562
599,0.0
648,20306530.752864838
649,166884.4171096005
748,1236489.8865415424
2,4, 1, 4, 0, 9, 0.00,60.00,Wednesday
7,175625.0279054509
129,35479.645161797314
203,737125.6656503731
204,247618.6073241912
205,9408904.728456637
206,0.0
586,22009942.746102046
599,0.0
648,20088081.89027039
649,142468.17369257298
748,1187151.6983246354
2,4, 1, 4, 0,10, 0.00,60.00,Wednesday
7,112580.14609323774
129,22075.137326497013
203,748294.2363420454
204,705162.178134126
205,9390192.783080798
206,0.0
586,21961125.703165706
599,0.0
648,20038948.823377
649,138593.76891289503
748,1038757.7360340558
2,4, 1, 4, 0,11, 0.00,60.00,Wednesday
7,112580.14609323774
129,18785.902053601603
203,770631.3777253898
204,1728963.3553226097
205,8976108.80226304
206,0.0
586,19050445.46274477
599,0.0
648,17204730.893195212
649,128987.1696565352
748,939828.4278403363
2,4, 1, 4, 0,12, 0.00,60.00,Wednesday
7,112580.14609323774
129,17411.627029748233
203,781799.9484170622
204,2086105.5741133168
205,8562848.928446142
206,0.0
586,14869751.155907746
599,0.0
648,13077697.618998863
649,92270.53532896342
748,754335.9749771121
2,4, 1, 4, 0,13, 0.00,60.00,Wednesday
7,112580.14609323774
129,17074.86454535414
203,770631.3777253898
204,2298842.9104332537
205,8059206.695643196
206,0.0
586,13865840.624961603
599,0.0
648,12149154.176741477
649,56290.85875607097
748,655406.6667833925
2,4, 1, 4, 0,14, 0.00,60.00,Wednesday
7,112580.14609323774
129,17970.41077328033
203,737125.6656503731
204,2125855.915141858
205,7922717.418840107
206,0.0
586,13984722.410408106
599,0.0
648,12323709.82888799
649,93789.55645952339
748,581209.6856381027
2,4, 1, 4, 0,15, 0.00,60.00,Wednesday
7,112580.14609323774
129,18486.11835327732
203,725957.0949587006
204,2211225.095655711
205,7988630.828443944
206,0.0
586,14566930.24099283
599,0.0
648,12906997.26959684
649,116641.4157644579
748,507012.70449281286
2,4, 1, 4, 0,16, 0.00,60.00,Wednesday
7,112580.14609323774
129,38363.64158147685
203,759462.8070337174
204,1056432.1941867706
205,7819459.373911351
206,0.0
586,16841265.07514111
599,0.0
648,15180213.814870615
649,66094.70052247024
748,581209.6856381027
2,4, 1, 4, 0,17, 0.00,60.00,Wednesday
7,135096.17531188528
129,84894.48089013867
203,893485.6553337852
204,133811.08432133857
205,8147805.575151303
206,0.0
586,19521358.244640242
599,0.0
648,17819205.332046993
649,96393.50832285217
748,680138.9938318223
2,4, 1, 4, 0,18, 0.00,60.00,Wednesday
7,234166.70387393452
129,122373.45044044813
203,1116857.0691672317
204,0.0
205,8631091.095885148
206,0.0
586,20599165.086603366
599,0.0
648,18833702.118286308
649,137604.87390217968
748,902729.9372676915
2,4, 1, 4, 0,19, 0.00,60.00,Wednesday
7,391778.90840446734
129,165204.15868938417
203,1116857.0691672317
204,0.0
205,9395031.923163053
206,0.0
586,22101796.366472084
599,0.0
648,20193489.206602167
649,150091.94904082286
748,1063490.0630824857
2,4, 1, 4, 0,20, 0.00,60.00,Wednesday
7,391778.90840446734
129,195797.52156985042
203,1038677.0743255256
204,0.0
205,10112229.8586795
206,0.0
586,24200868.46273909
599,0.0
648,22167191.851029333
649,178454.6799091266
748,1014025.4089856257
2,4, 1, 4, 0,21, 0.00,60.00,Wednesday
7,391778.90840446734
129,195797.52156985042
203,994002.791558836
204,0.0
205,10083764.2219441
206,0.0
586,24916194.39892812
599,0.0
648,22851563.656769417
649,132196.99017849218
748,927462.2643161215
2,4, 1, 4, 0,22, 0.00,60.00,Wednesday
7,450320.58437295095
129,134610.795808918
203,949328.5087921469
204,0.0
205,9703443.105648234
206,0.0
586,24652545.570494182
599,0.0
648,22628020.991323255
649,85678.29714503788
748,754335.9749771121
2,4, 1, 4, 0,23, 0.00,60.00,Wednesday
7,450320.58437295095
129,73424.07004798553
203,792968.5191087344
204,0.0
205,10228794.603376584
206,0.0
586,24906264.526499454
599,0.0
648,22837607.105915524
649,169410.19464306155
748,655406.6667833925
2,4, 1, 4, 0,24, 0.00,60.00,Wednesday
7,450320.58437295095
129,30593.36288046622
203,647777.1001169943
204,0.0
205,10666666.350640733
206,0.0
586,26230875.81319988
599,0.0
648,24067000.77043108
649,168119.58697675145
748,358618.7422022336
2,5, 1, 5, 0, 1, 0.00,60.00,Thursday
7,450320.58437295095
129,12237.345368469836
203,502585.68112525425
204,0.0
205,11235352.556777837
206,0.0
586,28088702.940720677
599,0.0
648,25784099.62379595
649,137883.3990810239
748,98951.3295040615
2,5, 1, 5, 0, 2, 0.00,60.00,Thursday
7,450320.58437295095
129,12237.345368469836
203,457911.39835856494
204,0.0
205,10916946.682867194
206,0.0
586,28798085.358877175
599,0.0
648,26488859.838509444
649,50925.4420763551
748,49475.66475203075
2,5, 1, 5, 0, 3, 0.00,60.00,Thursday
7,450320.58437295095
129,12237.345368469836
203,435574.25697522034
204,0.0
205,10726175.367971946
206,0.0
586,28593264.38384925
599,0.0
648,26295915.7702901
649,16195.59647439928
748,12368.916188007688
2,5, 1, 5, 0, 4, 0.00,60.00,Thursday
7,450320.58437295095
129,12237.345368469836
203,424405.686283548
204,0.0
205,11901116.537477182
206,0.0
586,30486711.023605064
599,0.0
648,28009124.524827532
649,86210.56398598157
748,12368.916188007688
2,5, 1, 5, 0, 5, 0.00,60.00,Thursday
7,450320.58437295095
129,36712.035023992765
203,424405.686283548
204,0.0
205,12299992.57937372
206,0.0
586,31953010.33099617
599,0.0
648,29365800.3403384
649,46960.631989309695
748,49475.66475203075
2,5, 1, 5, 0, 6, 0.00,60.00,Thursday
7,450320.58437295095
129,79542.74327292883
203,480248.53974190966
204,0.0
205,12819620.342735369
206,0.0
586,32386963.015045654
599,0.0
648,29724419.16865749
649,73451.72936025374
748,333960.7370762076
2,5, 1, 5, 0, 7, 0.00,60.00,Thursday
7,450320.58437295095
129,85661.41541645538
203,603102.8173503052
204,0.0
205,12440877.811004246
206,0.0
586,31001960.283798784
599,0.0
648,28401538.62055914
649,37667.22951105676
748,1162678.121672723
2,5, 1, 5, 0, 8, 0.00,60.00,Thursday
7,382772.49671700835
129,79542.74327292883
203,725957.0949587006
204,0.0
205,12272356.495432233
206,0.0
586,29549939.852194652
599,0.0
648,27034240.740965042
649,97378.77115193606
748,1236765.1247699636
2,5, 1, 5, 0, 9, 0.00,60.00,Thursday
7,175625.0279054509
129,27299.04120599901
203,737125.6656503731
204,5731015.793447535
205,13037060.60383154
206,0.0
586,25355151.798321445
599,0.0
648,22758853.088283893
649,192768.13290528842
748,1187415.9540487381
2,5, 1, 5, 0,10, 0.00,60.00,Thursday
7,112580.14609323774
129,7502.336809071789
203,748294.2363420454
204,8389028.44519939
205,11661915.001758318
206,0.0
586,18515367.19069975
599,0.0
648,16093118.139683424
649,66867.68230114786
748,1038988.9597926456
2,5, 1, 5, 0,11, 0.00,60.00,Thursday
7,112580.14609323774
129,15764.246682868785
203,770631.3777253898
204,3004668.0597337997
205,11043757.593429178
206,0.0
586,19831568.273840785
599,0.0
648,17533960.208936382
649,68646.69507635444
748,940037.6302885843
2,5, 1, 5, 0,12, 0.00,60.00,Thursday
7,112580.14609323774
129,16387.67266039049
203,781799.9484170622
204,2518333.0441551716
205,10992388.260398429
206,0.0
586,19791694.63774103
599,0.0
648,17505774.451749813
649,78795.83237848655
748,754503.8874684691
2,5, 1, 5, 0,13, 0.00,60.00,Thursday
7,112580.14609323774
129,13952.847721428405
203,770631.3777253898
204,3390601.160557132
205,10675670.837909486
206,0.0
586,18474092.491751216
599,0.0
648,16252676.927650224
649,82917.73176708448
748,655552.5579644075
2,5, 1, 5, 0,14, 0.00,60.00,Thursday
7,112580.14609323774
129,7342.406896656878
203,737125.6656503731
204,9687188.360402066
205,9866314.50603149
206,0.0
586,10903659.329831615
599,0.0
648,8824654.309849892
649,57008.98377716126
748,581339.0608363615
2,5, 1, 5, 0,15, 0.00,60.00,Thursday
7,112580.14609323774
129,7342.406896656878
203,725957.0949587006
204,10971056.07339729
205,8857386.501408515
206,0.0
586,8170877.428084863
599,0.0
648,6294501.708083381
649,52983.105961740555
748,507125.56370831525
2,5, 1, 5, 0,16, 0.00,60.00,Thursday
7,112580.14609323774
129,18362.2923868675
203,759462.8070337174
204,8139971.063214161
205,8793336.493833344
206,0.0
586,11949224.934014663
599,0.0
648,10116817.104172299
649,92545.53557845639
748,581339.0608363615
2,5, 1, 5, 0,17, 0.00,60.00,Thursday
7,135096.17531188528
129,83025.53920593562
203,893485.6553337852
204,1215234.3617068524
205,9813867.390809176
206,0.0
586,22131402.518171158
599,0.0
648,20117178.99404025
649,123893.2519623604
748,680290.3903404229
2,5, 1, 5, 0,18, 0.00,60.00,Thursday
7,234166.70387393452
129,122373.45044044813
203,1116857.0691672317
204,0.0
205,10568213.273069646
206,0.0
586,26396638.93433622
599,0.0
648,24231370.91392003
649,119181.5326217502
748,902930.8817245612
2,5, 1, 5, 0,19, 0.00,60.00,Thursday
7,391778.90840446734
129,165204.15868938417
203,1116857.0691672317
204,0.0
205,11262702.606751915
206,0.0
586,27452835.80323468
599,0.0
648,25182312.83991507
649,155238.4575381897
748,1063726.7921686613
2,5, 1, 5, 0,20, 0.00,60.00,Thursday
7,391778.90840446734
129,195797.52156985042
203,1038677.0743255256
204,0.0
205,11630262.888615446
206,0.0
586,28309852.520915397
599,0.0
648,25985795.81623919
649,178736.39805942474
748,1014251.1274166305
2,5, 1, 5, 0,21, 0.00,60.00,Thursday
7,391778.90840446734
129,195797.52156985042
203,994002.791558836
204,0.0
205,11168960.964877767
206,0.0
586,27983827.290392045