Program Version,EnergyPlus, Version 9.6.0-4b123cf80f, YMD=2022.02.27 10:11
1,5,Environment Title[],Latitude[deg],Longitude[deg],Time Zone[],Elevation[m]
2,8,Day of Simulation[],Month[],Day of Month[],DST Indicator[1=yes 0=no],Hour[],StartMinute[],EndMinute[],DayType
3,5,Cumulative Day of Simulation[],Month[],Day of Month[],DST Indicator[1=yes 0=no],DayType  ! When Daily Report Variables Requested
4,2,Cumulative Days of Simulation[],Month[]  ! When Monthly Report Variables Requested
5,1,Cumulative Days of Simulation[] ! When Run Period Report Variables Requested
6,1,Calendar Year of Simulation[] ! When Annual Report Variables Requested
7,1,ZONE1_1_892DF2FD,Zone People Total Heating Energy [J] !Hourly
8,1,ZONE2_2_AFAD5749,Zone People Total Heating Energy [J] !Hourly
167,1,ZONE1_1_892DF2FD,Zone Lights Electricity Energy [J] !Hourly
168,1,ZONE2_2_AFAD5749,Zone Lights Electricity Energy [J] !Hourly
267,1,ZONE1_1_892DF2FD,Zone Electric Equipment Electricity Energy [J] !Hourly
268,1,ZONE2_2_AFAD5749,Zone Electric Equipment Electricity Energy [J] !Hourly
269,1,ZONE1_1_892DF2FD,Zone Windows Total Transmitted Solar Radiation Energy [J] !Hourly
270,1,ZONE2_2_AFAD5749,Zone Windows Total Transmitted Solar Radiation Energy [J] !Hourly
271,1,ZONE1_1_892DF2FD,Zone Infiltration Total Heat Loss Energy [J] !Hourly
272,1,ZONE1_1_892DF2FD,Zone Infiltration Total Heat Gain Energy [J] !Hourly
273,1,ZONE2_2_AFAD5749,Zone Infiltration Total Heat Loss Energy [J] !Hourly
274,1,ZONE2_2_AFAD5749,Zone Infiltration Total Heat Gain Energy [J] !Hourly
717,1,ZONE1_1_892DF2FD IDEAL LOADS AIR SYSTEM,Zone Ideal Loads Supply Air Total Heating Energy [J] !Hourly
730,1,ZONE1_1_892DF2FD IDEAL LOADS AIR SYSTEM,Zone Ideal Loads Supply Air Total Cooling Energy [J] !Hourly
779,1,ZONE1_1_892DF2FD IDEAL LOADS AIR SYSTEM,Zone Ideal Loads Zone Total Heating Energy [J] !Hourly
780,1,ZONE1_1_892DF2FD IDEAL LOADS AIR SYSTEM,Zone Ideal Loads Zone Total Cooling Energy [J] !Hourly
781,1,ZONE2_2_AFAD5749 IDEAL LOADS AIR SYSTEM,Zone Ideal Loads Supply Air Total Heating Energy [J] !Hourly
782,1,ZONE2_2_AFAD5749 IDEAL LOADS AIR SYSTEM,Zone Ideal Loads Supply Air Total Cooling Energy [J] !Hourly
783,1,ZONE2_2_AFAD5749 IDEAL LOADS AIR SYSTEM,Zone Ideal Loads Zone Total Heating Energy [J] !Hourly
784,1,ZONE2_2_AFAD5749 IDEAL LOADS AIR SYSTEM,Zone Ideal Loads Zone Total Cooling Energy [J] !Hourly
883,1,2019::MIDRISEAPARTMENT::APARTMENT_SHW..ZONE2_2_AFAD5749,Water Use Equipment Heating Energy [J] !Hourly
922,1,2019::MIDRISEAPARTMENT::APARTMENT_SHW..ZONE1_1_892DF2FD,Water Use Equipment Heating Energy [J] !Hourly
End of Data Dictionary
1,RUN PERIOD 1,  47.47,-122.32,  -8.00, 122.00
2,1, 1, 1, 0, 1, 0.00,60.00,Sunday
7,450320.58437294525
8,450320.5843729513
167,12237.34536846968
168,12237.345368469847
267,502585.68112524773
268,502585.6811252547
269,0.0
270,0.0
271,1184251.4284214722
272,0.0
273,1753604.5863715247
274,0.0
717,7008265.870393763
730,0.0
779,6044316.06324263
780,311930.30584213807
781,8014418.344724491
782,0.0
783,7049140.860896099
784,246468.29853306728
883,104161.88071653164
922,104161.88071653
2,1, 1, 1, 0, 2, 0.00,60.00,Sunday
7,450320.58437294525
8,450320.5843729513
167,12237.34536846968
168,12237.345368469847
267,457911.3983585591
268,457911.3983585654
269,0.0
270,0.0
271,1122821.0944393205
272,0.0
273,1669510.1901655397
274,0.0
717,7262229.110989621
730,0.0
779,6269229.330139971
780,218236.60422022262
781,8327925.418504266
782,0.0
783,7333735.6251926655
784,159562.2252721687
883,52080.94035826582
922,52080.940358265
2,1, 1, 1, 0, 3, 0.00,60.00,Sunday
7,450320.58437294525
8,450320.5843729513
167,12237.34536846968
168,12237.345368469847
267,435574.25697521475
268,435574.25697522087
269,0.0
270,0.0
271,1047348.5472587978
272,0.0
273,1572398.8921296082
274,0.0
717,7276600.476677506
730,0.0
779,6281497.448765546
780,129580.8449038156
781,8331137.49132036
782,0.0
783,7335126.514961066
784,84813.82525681629
883,13020.235089566455
922,13020.23508956625
2,1, 1, 1, 0, 4, 0.00,60.00,Sunday
7,450320.58437294525
8,450320.5843729513
167,12237.34536846968
168,12237.345368469847
267,424405.68628354266
268,424405.6862835484
269,0.0
270,0.0
271,984077.2058761556
272,0.0
273,1491100.3170673852
274,0.0
717,7145896.7486528745
730,0.0
779,6170468.223097611
780,79087.21404685192
781,8159942.15495177
782,0.0
783,7183858.512146895
784,46786.20965551103
883,13020.235089566455
922,13020.23508956625
2,1, 1, 1, 0, 5, 0.00,60.00,Sunday
7,450320.58437294525
8,450320.5843729513
167,36712.03502399229
168,36712.0350239928
267,424405.68628354266
268,424405.6862835484
269,0.0
270,0.0
271,924738.4986757655
272,0.0
273,1412438.9170610146
274,0.0
717,6894045.437729268
730,0.0
779,5949968.831730161
780,45086.30507363065
781,7837234.550097214
782,0.0
783,6892707.463924503
784,22875.071780127386
883,52080.94035826582
922,52080.940358265
2,1, 1, 1, 0, 6, 0.00,60.00,Sunday
7,450320.58437294525
8,450320.5843729513
167,79542.7432729278
168,79542.7432729289
267,480248.5397419035
268,480248.53974191006
269,0.0
270,0.0
271,856793.3602212903
272,0.0
273,1314354.914216624
274,0.0
717,6382152.200435729
730,0.0
779,5509358.366758293
780,39585.77639870441
781,7214000.229209591
782,0.0
783,6340883.186205828
784,23649.719341405806
883,351546.34741829423
922,351546.34741828876
2,1, 1, 1, 0, 7, 0.00,60.00,Sunday
7,450320.58437294525
8,450320.5843729513
167,85661.41541645429
168,85661.41541645545
267,603102.8173502974
268,603102.8173503056
269,0.0
270,0.0
271,916688.3417197485
272,0.0
273,1403517.3805106068
274,0.0
717,6019384.180176925
730,0.0
779,5151020.444728544
780,89205.80786581845
781,6815211.702727087
782,0.0
783,5946503.6930436455
784,72231.13106545866
883,1223902.0984192463
922,1223902.0984192274
2,1, 1, 1, 0, 8, 0.00,60.00,Sunday
7,382772.49671700347
8,382772.49671700865
167,79542.7432729278
168,79542.7432729289
267,725957.0949586912
268,725957.0949587013
269,0.0
270,0.0
271,1078528.5168215248
272,0.0
273,1632432.365876682
274,0.0
717,6131617.667482784
730,0.0
779,5238674.493327627
780,242872.26867063437
781,6996631.609935049
782,0.0
783,6103052.713374687
784,211527.540357868
883,1301890.3540388264
922,1301890.3540388069
2,1, 1, 1, 0, 9, 0.00,60.00,Sunday
7,175625.0279054486
8,175625.027905451
167,16173.404172955192
168,14593.71203824733
267,737125.6656503635
268,737125.6656503736
269,270965.43631381553
270,346722.0663820906
271,1139784.4163475467
272,0.0
273,1698500.968681336
274,0.0
717,5937990.841084915
730,0.0
779,5086157.622572747
780,366608.6515998812
781,6628493.215232796
782,0.0
783,5775602.922257346
784,314488.8716664851
883,1249942.5685983796
922,1249942.56859836
2,1, 1, 1, 0,10, 0.00,60.00,Sunday
7,112580.14609323631
8,112580.14609323782
167,7342.406896656785
168,7342.4068966568875
267,748294.2363420356
268,748294.236342046
269,1020468.5995884825
270,1217327.0464754715
271,1131170.1263572373
272,0.0
273,1663007.9659553817
274,0.0
717,5054080.983727086
730,0.0
779,4230212.61748315
780,394014.4827337963
781,5223399.559963553
782,0.0
783,4398127.266497514
784,324792.89012108673
883,1093699.747523582
922,1093699.7475235646
2,1, 1, 1, 0,11, 0.00,60.00,Sunday
7,112580.14609323631
8,112580.14609323782
167,7342.406896656785
168,7342.4068966568875
267,770631.3777253799
268,770631.3777253905
269,1513637.1366634911
270,1709825.5159556656
271,1091607.149670103
272,0.0
273,1592446.3860770513
274,0.0
717,4126475.0776213156
730,0.0
779,3341079.3267472507
780,395166.6203791751
781,4008803.981768406
782,0.0
783,3221852.738724321
784,318472.01426983374
883,989537.8668070504
922,989537.866807035
2,1, 1, 1, 0,12, 0.00,60.00,Sunday
7,112580.14609323631
8,112580.14609323782
167,7342.406896656785
168,7342.4068966568875
267,781799.948417052
268,781799.9484170629
269,1045544.941950436
270,1185055.7847816679
271,1029528.6125907414
272,0.0
273,1492840.3515423425
274,0.0
717,4088108.76941043
730,0.0
779,3347448.5831025844
780,380447.6351366306
781,4142956.9929061243
782,0.0
783,3400678.4669635366
784,300654.29176279466
883,794234.3404635536
922,794234.3404635412
2,1, 1, 1, 0,13, 0.00,60.00,Sunday
7,112580.14609323631
8,112580.14609323782
167,7342.406896656785
168,7342.4068966568875
267,770631.3777253799
268,770631.3777253905
269,1221310.2755443354
270,1383908.6071058984
271,1073194.0746194662
272,0.0
273,1567106.1656184115
274,0.0
717,4628845.6546556335
730,0.0
779,3783924.045555746
780,314510.0366173237
781,4797573.550122908
782,0.0
783,3951107.6631190153
784,238368.35756953154
883,690072.4597470218
922,690072.4597470112
2,1, 1, 1, 0,14, 0.00,60.00,Sunday
7,112580.14609323631
8,112580.14609323782
167,7342.406896656785
168,7342.4068966568875
267,737125.6656503635
268,737125.6656503736
269,1599078.6217122101
270,1820664.8604183649
271,1123865.360733552
272,0.0
273,1655316.8889708298
274,0.0
717,4882028.595538193
730,0.0
779,3975858.139553733
780,305137.6450300778
781,5012075.804666431
782,0.0
783,4104508.2312577968
784,236251.81416527487
883,611951.0492096231
922,611951.0492096137
2,1, 1, 1, 0,15, 0.00,60.00,Sunday
7,112580.14609323631
8,112580.14609323782
167,7342.406896656785
168,7342.4068966568875
267,725957.0949586912
268,725957.0949587013
269,1052594.4685825766
270,1304743.318976781
271,1087168.123383309
272,0.0
273,1603860.7708664322
274,0.0
717,5192826.093139762
730,0.0
779,4301412.575702863
780,281874.89069745585
781,5430670.4300614605
782,0.0
783,4537939.788684094
784,216933.1932989007
883,533829.6386722245
922,533829.6386722162
2,1, 1, 1, 0,16, 0.00,60.00,Sunday
7,112580.14609323631
8,112580.14609323782
167,12849.212474680653
168,12849.21247468083
267,759462.8070337079
268,759462.8070337183
269,483018.5227385997
270,603569.5822583585
271,1082595.9120784258
272,0.0
273,1604807.4838791303
274,0.0
717,5821412.214080036
730,0.0
779,4908432.9098995365
780,248681.53447718144
781,6406455.357950097
782,0.0
783,5492274.146541506
784,189420.67594310534
883,611951.0492096231
922,611951.0492096137
2,1, 1, 1, 0,17, 0.00,60.00,Sunday
7,135096.17531188353
8,135096.1753118854
167,75421.89220696213
168,72361.96818022964
267,893485.6553337739
268,893485.655333786
269,57179.43308272718
270,68414.94792022879
271,1082055.5948372523
272,0.0
273,1610130.6479919548
274,0.0
717,6287444.307949322
730,0.0
779,5358829.44771283
780,224876.13332359
781,7175258.353919489
782,0.0
783,6245536.184785055
784,170279.51020605702
883,716112.929926155
922,716112.9299261438
2,1, 1, 1, 0,18, 0.00,60.00,Sunday
7,234166.70387393152
8,234166.70387393472
167,122373.45044044657
168,122373.45044044827
267,1116857.0691672175
268,1116857.0691672326
269,0.0
270,0.0
271,1105323.7885468137
272,0.0
273,1648334.2298608215
274,0.0
717,6138470.143211144
730,0.0
779,5210048.008474629
780,242163.05519081582
781,7009871.623160973
782,0.0
783,6080389.55889946
784,189902.50448519143
883,950477.1615383514
922,950477.1615383361
2,1, 1, 1, 0,19, 0.00,60.00,Sunday
7,391778.90840446233
8,391778.9084044677
167,165204.15868938205
168,165204.15868938432
267,1116857.0691672175
268,1116857.0691672326
269,0.0
270,0.0
271,1179298.5931565242
272,0.0
273,1754409.357929704
274,0.0
717,5994466.825869628
730,0.0
779,5067892.535698394
780,320991.4643924559
781,6849405.884375175
782,0.0
783,5921671.141818406
784,263774.5652446305
883,1119740.217702715
922,1119740.2177026975
2,1, 1, 1, 0,20, 0.00,60.00,Sunday
7,391778.90840446233
8,391778.9084044677
167,195797.52156984792
168,195797.52156985062
267,1038677.0743255123
268,1038677.0743255264
269,0.0
270,0.0
271,1227968.9604235857
272,0.0
273,1814661.8249553721
274,0.0
717,6109298.94886871
730,0.0
779,5184067.771975752
780,378327.8773993466
781,6995254.862259156
782,0.0
783,6068644.994419357
784,310350.57661157736
883,1067659.277344449
922,1067659.2773444324
2,1, 1, 1, 0,21, 0.00,60.00,Sunday
7,391778.90840446233
8,391778.9084044677
167,195797.52156984792
168,195797.52156985062
267,994002.7915588234
268,994002.7915588372
269,0.0
270,0.0
271,1250106.1125583798
272,0.0
273,1839199.8051378666
274,0.0
717,6353969.41091591
730,0.0
779,5411394.28906725
780,385293.67303269065
781,7307667.8723723125
782,0.0
783,6363558.909754718
784,309666.6040732147
883,976517.6317174842
922,976517.6317174688
2,1, 1, 1, 0,22, 0.00,60.00,Sunday
7,450320.58437294525
8,450320.5843729513
167,134610.79580891624
168,134610.7958089181
267,949328.5087921347
268,949328.5087921476
269,0.0
270,0.0
271,1235726.737407288
272,0.0
273,1813788.2298718602
274,0.0
717,6460083.753174912
730,0.0
779,5522363.78302496
780,377789.0970605798
781,7433321.61282297
782,0.0
783,6494012.169653553
784,299419.0419108654
883,794234.3404635536
922,794234.3404635412
2,1, 1, 1, 0,23, 0.00,60.00,Sunday
7,450320.58437294525
8,450320.5843729513
167,73424.07004798458
168,73424.0700479856
267,792968.5191087241
268,792968.5191087351
269,0.0
270,0.0
271,1199637.8492968963
272,0.0
273,1759922.4025283223
274,0.0
717,6511330.583728459
730,0.0
779,5585595.9144083755
780,351886.99232246657
781,7457187.067758309
782,0.0
783,6529885.864417125
784,274647.96018803614
883,690072.4597470218
922,690072.4597470112
2,1, 1, 1, 0,24, 0.00,60.00,Sunday
7,450320.58437294525
8,450320.5843729513
167,30593.362880465826
168,30593.36288046625
267,647777.100116986
268,647777.1001169949
269,0.0
270,0.0
271,1158247.8574983357
272,0.0
273,1702772.7219116301
274,0.0
717,6644467.388327945
730,0.0
779,5717894.374772636
780,309916.10484802636
781,7586014.875533424
782,0.0
783,6657966.598492409
784,237177.22893168364
883,377586.8175974272
922,377586.81759742124
2,2, 1, 2, 0, 1, 0.00,60.00,Monday
7,450320.58437294525
8,450320.5843729513
167,12237.34536846968
168,12237.345368469847
267,502585.68112524773
268,502585.6811252547
269,0.0
270,0.0
271,1080858.2471732092
272,0.0
273,1595886.4046783664
274,0.0
717,6669651.681904331
730,0.0
779,5762980.943215643
780,252128.3570100782
781,7572798.505770306
782,0.0
783,6664832.226331598
784,188250.83358924137
883,104186.41424704665
922,104186.41424704503
2,2, 1, 2, 0, 2, 0.00,60.00,Monday
7,450320.58437294525
8,450320.5843729513
167,12237.34536846968
168,12237.345368469847
267,457911.3983585591
268,457911.3983585654
269,0.0
270,0.0
271,1016099.7943876211
272,0.0
273,1512480.9555987115
274,0.0
717,6725497.560932391
730,0.0
779,5811165.465640988
780,170971.48582249036
781,7630201.163827788
782,0.0
783,6714811.85648015
784,118844.92177432947
883,52093.20712352332
922,52093.207123522516
2,2, 1, 2, 0, 3, 0.00,60.00,Monday
7,450320.58437294525
8,450320.5843729513
167,12237.34536846968
168,12237.345368469847
267,435574.25697521475
268,435574.25697522087
269,0.0
270,0.0
271,984033.080887598
272,0.0
273,1480680.7155509146
274,0.0
717,6852119.049994207
730,0.0
779,5921617.214203098
780,115568.97441135303
781,7791682.871273415
782,0.0
783,6860385.397759498
784,76339.51190893017
883,13023.30178088083
922,13023.301780880629
2,2, 1, 2, 0, 4, 0.00,60.00,Monday
7,450320.58437294525
8,450320.5843729513
167,12237.34536846968
168,12237.345368469847
267,424405.68628354266
268,424405.6862835484
269,0.0
270,0.0
271,936425.8727161528
272,0.0
273,1420529.7778692588
274,0.0
717,6747730.454202294
730,0.0
779,5837483.670674094
780,84177.2895846037
781,7650798.045252284
782,0.0
783,6739962.351587636
784,55140.67222384238
883,13023.30178088083
922,13023.301780880629
2,2, 1, 2, 0, 5, 0.00,60.00,Monday
7,450320.58437294525
8,450320.5843729513
167,36712.03502399229
168,36712.0350239928
267,424405.68628354266
268,424405.6862835484
269,0.0
270,0.0
271,932692.0426632825
272,0.0
273,1424033.781759117
274,0.0
717,6715494.529324871
730,0.0
779,5799027.678878108
780,72079.15972393307
781,7611268.034087246
782,0.0
783,6694355.160031265
784,50087.66038776812
883,52093.20712352332
922,52093.207123522516
2,2, 1, 2, 0, 6, 0.00,60.00,Monday
7,450320.58437294525
8,450320.5843729513
167,79542.7432729278
168,79542.7432729289
267,480248.5397419035
268,480248.53974191006
269,0.0
270,0.0
271,963303.8452856034
272,0.0
273,1474769.1187138322
274,0.0
717,6714063.8733727615
730,0.0
779,5782886.512011494
780,82708.94103471923
781,7636475.165960569
782,0.0
783,6704912.741467681
784,63723.139771296155
883,351629.14808378246
922,351629.14808377705
2,2, 1, 2, 0, 7, 0.00,60.00,Monday
7,450320.58437294525
8,450320.5843729513
167,85661.41541645429
168,85661.41541645545
267,603102.8173502974
268,603102.8173503056
269,0.0
270,0.0
271,1046666.3815342546
272,0.0
273,1595498.896616307
274,0.0
717,6488516.363970404
730,0.0
779,5558815.151732208
780,155491.48390742455
781,7399770.254544067
782,0.0
783,6469595.751626417
784,132155.5630101076
883,1224190.3674027983
922,1224190.367402779
2,2, 1, 2, 0, 8, 0.00,60.00,Monday
7,382772.49671700347
8,382772.49671700865
167,79542.7432729278
168,79542.7432729289
267,725957.0949586912
268,725957.0949587013
269,0.0
270,0.0
271,1146745.6216946845
272,0.0
273,1725143.5613945038
274,0.0
717,6217822.234207654
730,0.0
779,5311767.556754701
780,291311.0149047415
781,7074030.988637153
782,0.0
783,6167158.688272657
784,250997.55762390475
883,1302196.9918079255
922,1302196.9918079055
2,2, 1, 2, 0, 9, 0.00,60.00,Monday
7,175625.0279054486
8,175625.027905451
167,14858.098415914103
168,13110.141617509365
267,737125.6656503635
268,737125.6656503736
269,315313.0787204958
270,376362.09312018077
271,1197113.1559350095
272,0.0
273,1777346.9493380159
274,0.0
717,6037662.260371595
730,0.0
779,5148182.894602223
780,372675.23618031427
781,6737562.112417519
782,0.0
783,5846881.787162712
784,313461.1067465311
883,1250236.9709645596
922,1250236.9709645405
2,2, 1, 2, 0,10, 0.00,60.00,Monday
7,112580.14609323631
8,112580.14609323782
167,7342.406896656785
168,7342.4068966568875
267,748294.2363420356
268,748294.236342046
269,1091516.5725278992
270,1291406.1014179094
271,1214932.8270548503
272,0.0
273,1787429.8578141774
274,0.0
717,5418192.051150426
730,0.0
779,4529261.652501437
780,399742.435794748
781,5678251.249579079
782,0.0
783,4787847.308592355
784,327088.42225731636
883,1093957.3495939898
922,1093957.3495939726
2,2, 1, 2, 0,11, 0.00,60.00,Monday
7,112580.14609323631
8,112580.14609323782
167,7342.406896656785
168,7342.4068966568875
267,770631.3777253799
268,770631.3777253905
269,1863221.996791909
270,2102473.8605624884
271,1173605.7957960246
272,0.0
273,1713550.6872255038
274,0.0
717,4324253.287608475
730,0.0
779,3491940.9404462734
780,421888.46346891485
781,4207629.190284095
782,0.0
783,3373694.3225746774
784,341888.9773439654
883,989770.935346943
922,989770.9353469278
2,2, 1, 2, 0,12, 0.00,60.00,Monday
7,112580.14609323631
8,112580.14609323782
167,7342.406896656785
168,7342.4068966568875
267,781799.948417052
268,781799.9484170629
269,2201654.692668641
270,2488659.9830413572
271,1112532.9551881764
272,0.0
273,1611368.5450403593
274,0.0
717,3458066.480249024
730,0.0
779,2687263.180293617
780,429730.78957874223
781,3080071.307052331
782,0.0
783,2307530.1151862275
784,344042.8394106915
883,794421.4086337305
922,794421.4086337184
2,2, 1, 2, 0,13, 0.00,60.00,Monday
7,112580.14609323631
8,112580.14609323782
167,7342.406896656785
168,7342.4068966568875
267,770631.3777253799
268,770631.3777253905
269,1348036.1461513187
270,1530185.8840942592
271,1043102.4465901584
272,0.0
273,1509218.4941163359
274,0.0
717,4083432.159885355
730,0.0
779,3286783.05961279
780,324519.178056287
781,4122394.0817021625
782,0.0
783,3324043.8012266597
784,240641.32376677476
883,690234.9943866839
922,690234.9943866733
2,2, 1, 2, 0,14, 0.00,60.00,Monday
7,112580.14609323631
8,112580.14609323782
167,7342.406896656785
168,7342.4068966568875
267,737125.6656503635
268,737125.6656503736
269,1252158.4968819092
270,1427507.324310412
271,1010043.6674869803
272,0.0
273,1476005.147802771
274,0.0
717,4445689.585579962
730,0.0
779,3637934.1872185357
780,276252.0422614495
781,4595600.090454272
782,0.0
783,3786402.7959499615
784,205158.3660215851
883,612095.183701399
922,612095.1837013895
2,2, 1, 2, 0,15, 0.00,60.00,Monday
7,112580.14609323631
8,112580.14609323782
167,7342.406896656785
168,7342.4068966568875
267,725957.0949586912
268,725957.0949587013
269,1122569.4773852543
270,1413538.3382843828
271,978529.4829481174
272,0.0
273,1439153.979704322
274,0.0
717,4631545.193767777
730,0.0
779,3817969.6233215537
780,238785.9481750058
781,4684635.891598231
782,0.0
783,3869794.9612562563
784,176396.51243133828
883,533955.3730161139
922,533955.3730161057
2,2, 1, 2, 0,16, 0.00,60.00,Monday
7,112580.14609323631
8,112580.14609323782
167,12849.212474680653
168,12849.21247468083
267,759462.8070337079
268,759462.8070337183
269,580240.0866125872
270,787302.3543996911
271,980668.0179243493
272,0.0
273,1453442.1986146623
274,0.0
717,5179453.55365598
730,0.0
779,4353190.111603966
780,226328.7422209699
781,5490957.494874688
782,0.0
783,4663596.177774236
784,172197.2615101892
883,612095.183701399
922,612095.1837013895
2,2, 1, 2, 0,17, 0.00,60.00,Monday
7,135096.17531188353
8,135096.1753118854
167,73377.04174004069
168,70381.3747905257
267,893485.6553337739
268,893485.655333786
269,67079.20122440063
270,83223.45915475205
271,953656.4236369964
272,0.0
273,1414341.9462865079
274,0.0
717,5361807.244718394
730,0.0
779,4574198.658165706
780,236373.44006476965
781,5989761.5177448755
782,0.0
783,5201109.814086019
784,184941.8371769865
883,716281.5979484457
922,716281.5979484346
2,2, 1, 2, 0,18, 0.00,60.00,Monday
7,234166.70387393152
8,234166.70387393472
167,122373.45044044657
168,122373.45044044827
267,1116857.0691672175
268,1116857.0691672326
269,0.0
270,0.0
271,936933.2364762207
272,0.0
273,1386480.9613605838
274,0.0
717,4937862.972255662
730,0.0
779,4195624.671287551
780,262143.9680021016
781,5487838.511952173
782,0.0
783,4744541.557438874
784,209946.33035446247
883,950701.0300043009
922,950701.0300042857
2,2, 1, 2, 0,19, 0.00,60.00,Monday
7,391778.90840446233
8,391778.9084044677
167,165204.15868938205
168,165204.15868938432
267,1116857.0691672175
268,1116857.0691672326
269,0.0
270,0.0
271,989156.622286865
272,0.0
273,1458784.9385150578
274,0.0
717,4766036.500146272
730,0.0
779,4019814.592632861
780,312187.01859116025
781,5298101.359592861
782,0.0
783,4550705.242474708
784,254291.81033411916
883,1120003.9531557513
922,1120003.9531557343
2,2, 1, 2, 0,20, 0.00,60.00,Monday
7,391778.90840446233
8,391778.9084044677
167,195797.52156984792
168,195797.52156985062
267,1038677.0743255123
268,1038677.0743255264
269,0.0
270,0.0
271,1051783.7088414566
272,0.0
273,1544672.7903398601
274,0.0
717,4994568.280157759
730,0.0
779,4215566.5224110335
780,349348.5052046176
781,5597574.7182129305
782,0.0
783,4817230.54165074
784,283159.62668105506
883,1067910.7460322278
922,1067910.7460322115
2,2, 1, 2, 0,21, 0.00,60.00,Monday
7,391778.90840446233
8,391778.9084044677
167,195797.52156984792
168,195797.52156985062
267,994002.7915588234
268,994002.7915588372
269,0.0
270,0.0
271,1101548.6473365305
272,0.0
273,1615222.112975294
274,0.0
717,5360072.915306466
730,0.0
779,4527487.283836502
780,350237.715961344
781,6062121.110078167
782,0.0
783,5228080.98041528
784,278522.68701878993
883,976747.6335660623
922,976747.6335660473
2,2, 1, 2, 0,22, 0.00,60.00,Monday
7,450320.58437294525
8,450320.5843729513
167,134610.79580891624
168,134610.7958089181
267,949328.5087921347
268,949328.5087921476
269,0.0
270,0.0
271,1136326.8473195094
272,0.0
273,1667898.968063015
274,0.0
717,5731056.525509169
730,0.0
779,4853387.159348784
780,346485.8357180864
781,6528639.677190631
782,0.0
783,5649484.9426937355
784,273248.7332167527
883,794421.4086337305
922,794421.4086337184
2,2, 1, 2, 0,23, 0.00,60.00,Monday
7,450320.58437294525
8,450320.5843729513
167,73424.07004798458
168,73424.0700479856
267,792968.5191087241
268,792968.5191087351
269,0.0
270,0.0
271,1129960.0923943873
272,0.0
273,1660153.6834030924
274,0.0
717,6014636.629294844
730,0.0
779,5124166.790682256
780,330703.69373400183
781,6854173.933426445
782,0.0
783,5962240.341080094
784,258532.31401518697
883,690234.9943866839
922,690234.9943866733
2,2, 1, 2, 0,24, 0.00,60.00,Monday
7,450320.58437294525
8,450320.5843729513
167,30593.362880465826
168,30593.36288046625
267,647777.100116986
268,647777.1001169949
269,0.0
270,0.0
271,1088223.1489579624
272,0.0
273,1600431.143492571
274,0.0
717,6123974.9687946085
730,0.0
779,5250755.344388797
780,312566.54939366836
781,6949664.664283093
782,0.0
783,6075045.815702699
784,243576.84375800999
883,377675.7516455441
922,377675.7516455382
2,3, 1, 3, 0, 1, 0.00,60.00,Tuesday
7,450320.58437294525
8,450320.5843729513
167,12237.34536846968
168,12237.345368469847
267,502585.68112524773
268,502585.6811252547
269,0.0
270,0.0
271,1001810.5697941289
272,0.0
273,1477543.1209210143
274,0.0
717,6170104.421291769
730,0.0
779,5307709.378554072
780,234801.6192651762
781,6970136.929992277
782,0.0
783,6106485.70629269
784,172864.75713813253
883,104210.38977022312
922,104210.38977022146
2,3, 1, 3, 0, 2, 0.00,60.00,Tuesday
7,450320.58437294525
8,450320.5843729513
167,12237.34536846968
168,12237.345368469847
267,457911.3983585591
268,457911.3983585654
269,0.0
270,0.0
271,861054.3111059428
272,0.0
273,1278620.8697714286
274,0.0
717,5819925.71573925
730,0.0
779,5014544.081924143
780,137565.408353565
781,6509746.064737966
782,0.0
783,5703384.615549786
784,89254.94074323437
883,52105.19488511156
922,52105.19488511073
2,3, 1, 3, 0, 3, 0.00,60.00,Tuesday
7,450320.58437294525
8,450320.5843729513
167,12237.34536846968
168,12237.345368469847
267,435574.25697521475
268,435574.25697522087
269,0.0
270,0.0
271,803833.3001010193
272,0.0
273,1208229.9053032673
274,0.0
717,5603757.225426579
730,0.0
779,4818807.08035998
780,94079.60181341646
781,6233355.167612536
782,0.0
783,5447707.344654229
784,59680.1158326798
883,13026.29872127789
922,13026.298721277682
2,3, 1, 3, 0, 4, 0.00,60.00,Tuesday
7,450320.58437294525
8,450320.5843729513
167,12237.34536846968
168,12237.345368469847
267,424405.68628354266
268,424405.6862835484
269,0.0
270,0.0
271,775784.8708434008
272,0.0
273,1178646.4129852569
274,0.0
717,5749039.438473861
730,0.0
779,4947731.835268581
780,42609.30187059221
781,6438668.642618835
782,0.0
783,5637273.00108039
784,18893.719512936426
883,13026.29872127789
922,13026.298721277682
2,3, 1, 3, 0, 5, 0.00,60.00,Tuesday
7,450320.58437294525
8,450320.5843729513
167,36712.03502399229
168,36712.0350239928
267,424405.68628354266
268,424405.6862835484
269,0.0
270,0.0
271,765864.042606684
272,0.0
273,1176106.4235030902
274,0.0
717,5919405.442403899
730,0.0
779,5099424.0233637635
780,7699.192875436529
781,6643110.992400014
782,0.0
783,5829634.901742706
784,0.0
883,52105.19488511156
922,52105.19488511073
2,3, 1, 3, 0, 6, 0.00,60.00,Tuesday
7,450320.58437294525
8,450320.5843729513
167,79542.7432729278
168,79542.7432729289
267,480248.5397419035
268,480248.53974191006
269,0.0
270,0.0
271,807821.7100978026
272,0.0
273,1246279.078340537
274,0.0
717,5929152.87459165
730,0.0
779,5097075.159034495
780,34778.077019608696
781,6661212.374072696
782,0.0
783,5828996.373324543
784,25163.505485873156
883,351710.065474503
922,351710.06547449756
2,3, 1, 3, 0, 7, 0.00,60.00,Tuesday
7,450320.58437294525
8,450320.5843729513
167,85661.41541645429
168,85661.41541645545
267,603102.8173502974
268,603102.8173503056
269,0.0
270,0.0
271,942117.3831069141
272,0.0
273,1441840.626311884
274,0.0
717,5682926.473659394
730,0.0
779,4854034.545908368
780,170606.31243407805
781,6394977.514674162
782,0.0
783,5565752.4424364325
784,154180.39549435457
883,1224472.0798001217
922,1224472.0798001022
2,3, 1, 3, 0, 8, 0.00,60.00,Tuesday
7,382772.49671700347
8,382772.49671700865
167,79542.7432729278
168,79542.7432729289
267,725957.0949586912
268,725957.0949587013
269,0.0
270,0.0
271,1103858.854698773
272,0.0
273,1658711.9836056568
274,0.0
717,5712839.582121087
730,0.0
779,4866650.812230493
780,333608.1565485968
781,6457060.836441335
782,0.0
783,5610060.240072834
784,293580.49639568035
883,1302496.655198618
922,1302496.655198598
2,3, 1, 3, 0, 9, 0.00,60.00,Tuesday
7,175625.0279054486
8,175625.027905451
167,11013.610507197687
168,11013.61050719784
267,737125.6656503635
268,737125.6656503736
269,499198.72337287606
270,735087.9565499695
271,1186634.3262574163
272,0.0
273,1756589.322902037
274,0.0
717,5671528.725588208
730,0.0
779,4812310.259567626
780,418235.7293215673
781,6100392.132426508
782,0.0
783,5239896.635887741
784,355270.8655508033
883,1250524.6772426772
922,1250524.6772426576
2,3, 1, 3, 0,10, 0.00,60.00,Tuesday
7,112580.14609323631
8,112580.14609323782
167,7342.406896656785
168,7342.4068966568875
267,748294.2363420356
268,748294.236342046
269,2185465.907211749
270,2669133.522836093
271,1197192.23033308
272,0.0
273,1752805.77330464
274,0.0
717,4553447.250774764
730,0.0
779,3694725.267815746
780,435862.7909189233
781,4235292.221511054
782,0.0
783,3374974.809060689
784,357199.04784629797
883,1094209.0925873425
922,1094209.0925873255
2,3, 1, 3, 0,11, 0.00,60.00,Tuesday
7,112580.14609323631
8,112580.14609323782
167,7342.406896656785
168,7342.4068966568875
267,770631.3777253799
268,770631.3777253905
269,5025125.28656085
270,5623115.329747387
271,1149812.0207381085
272,0.0
273,1682666.7851482364
274,0.0
717,1997582.3000475378
730,0.0
779,1156510.466232474
780,405029.8998810468
781,427279.4945398531
782,0.0
783,146281.74826058856
784,888906.5379095047
883,989998.7028171194
922,989998.7028171041
2,3, 1, 3, 0,12, 0.00,60.00,Tuesday
7,112580.14609323631
8,112580.14609323782
167,7342.406896656785
168,7342.4068966568875
267,781799.948417052
268,781799.9484170629
269,1969495.2535183707
270,2232087.014389012
271,1088101.318610238
272,0.0
273,1581129.9593544225
274,0.0
717,3340762.727137745
730,0.0
779,2516039.057217462
780,356330.9078502104
781,3083464.318374102
782,0.0
783,2256515.129635575
784,273137.4654484246
883,794604.2219979509
922,794604.2219979388
2,3, 1, 3, 0,13, 0.00,60.00,Tuesday
7,112580.14609323631
8,112580.14609323782
167,7342.406896656785
168,7342.4068966568875
267,770631.3777253799
268,770631.3777253905
269,2637539.9682841687
270,2974874.483400437
271,1020939.0159089023
272,0.0
273,1486702.8463288988
274,0.0
717,3235954.3720511533
730,0.0
779,2449105.988026979
780,325028.15349530755
781,2890513.427156543
782,0.0
783,2102128.9348975755
784,249289.28558143027
883,690393.832227728
922,690393.8322277174
2,3, 1, 3, 0,14, 0.00,60.00,Tuesday
7,112580.14609323631