Program Version,EnergyPlus, Version 9.6.0-4b123cf80f, YMD=2022.02.10 15:22
1,5,Environment Title[],Latitude[deg],Longitude[deg],Time Zone[],Elevation[m]
2,8,Day of Simulation[],Month[],Day of Month[],DST Indicator[1=yes 0=no],Hour[],StartMinute[],EndMinute[],DayType
3,5,Cumulative Day of Simulation[],Month[],Day of Month[],DST Indicator[1=yes 0=no],DayType  ! When Daily Report Variables Requested
4,2,Cumulative Days of Simulation[],Month[]  ! When Monthly Report Variables Requested
5,1,Cumulative Days of Simulation[] ! When Run Period Report Variables Requested
6,1,Calendar Year of Simulation[] ! When Annual Report Variables Requested
7,1,TEST_1_D4FB9FEF,Zone People Total Heating Energy [J] !Hourly
8,1,TEST_2_FA2B0CBE,Zone People Total Heating Energy [J] !Hourly
167,1,TEST_1_D4FB9FEF,Zone Lights Electricity Energy [J] !Hourly
168,1,TEST_2_FA2B0CBE,Zone Lights Electricity Energy [J] !Hourly
267,1,TEST_1_D4FB9FEF,Zone Electric Equipment Electricity Energy [J] !Hourly
268,1,TEST_2_FA2B0CBE,Zone Electric Equipment Electricity Energy [J] !Hourly
269,1,TEST_1_D4FB9FEF,Zone Windows Total Transmitted Solar Radiation Energy [J] !Hourly
270,1,TEST_2_FA2B0CBE,Zone Windows Total Transmitted Solar Radiation Energy [J] !Hourly
271,1,TEST_1_D4FB9FEF,Zone Infiltration Total Heat Loss Energy [J] !Hourly
272,1,TEST_1_D4FB9FEF,Zone Infiltration Total Heat Gain Energy [J] !Hourly
273,1,TEST_2_FA2B0CBE,Zone Infiltration Total Heat Loss Energy [J] !Hourly
274,1,TEST_2_FA2B0CBE,Zone Infiltration Total Heat Gain Energy [J] !Hourly
717,1,TEST_1_D4FB9FEF IDEAL LOADS AIR SYSTEM,Zone Ideal Loads Supply Air Total Heating Energy [J] !Hourly
730,1,TEST_1_D4FB9FEF IDEAL LOADS AIR SYSTEM,Zone Ideal Loads Supply Air Total Cooling Energy [J] !Hourly
779,1,TEST_1_D4FB9FEF IDEAL LOADS AIR SYSTEM,Zone Ideal Loads Zone Total Heating Energy [J] !Hourly
780,1,TEST_1_D4FB9FEF IDEAL LOADS AIR SYSTEM,Zone Ideal Loads Zone Total Cooling Energy [J] !Hourly
781,1,TEST_2_FA2B0CBE IDEAL LOADS AIR SYSTEM,Zone Ideal Loads Supply Air Total Heating Energy [J] !Hourly
782,1,TEST_2_FA2B0CBE IDEAL LOADS AIR SYSTEM,Zone Ideal Loads Supply Air Total Cooling Energy [J] !Hourly
783,1,TEST_2_FA2B0CBE IDEAL LOADS AIR SYSTEM,Zone Ideal Loads Zone Total Heating Energy [J] !Hourly
784,1,TEST_2_FA2B0CBE IDEAL LOADS AIR SYSTEM,Zone Ideal Loads Zone Total Cooling Energy [J] !Hourly
883,1,2019::MIDRISEAPARTMENT::APARTMENT_SHW..TEST_1_D4FB9FEF,Water Use Equipment Heating Energy [J] !Hourly
922,1,2019::MIDRISEAPARTMENT::APARTMENT_SHW..TEST_2_FA2B0CBE,Water Use Equipment Heating Energy [J] !Hourly
End of Data Dictionary
1,RUN PERIOD 1,  47.47,-122.32,  -8.00, 122.00
2,1, 1, 1, 0, 1, 0.00,60.00,Sunday
7,180128.23374917958
8,180128.23374917958
167,4894.938147387912
168,4894.938147387912
267,201034.2724501008
268,201034.2724501008
269,0.0
270,0.0
271,2607969.3074755594
272,0.0
273,2607830.0736901145
274,0.0
717,4757960.315320994
730,0.0
779,4370670.061061324
780,40443.062051272405
781,4731856.789904061
782,0.0
783,4344566.151526109
784,40424.122836556395
883,41664.75228661231
922,41664.75228661231
2,1, 1, 1, 0, 2, 0.00,60.00,Sunday
7,180128.23374917958
8,180128.23374917958
167,4894.938147387912
168,4894.938147387912
267,183164.55934342515
268,183164.55934342515
269,0.0
270,0.0
271,2525484.508532808
272,0.0
273,2525335.382887344
274,0.0
717,4904935.018473939
730,0.0
779,4506350.581571432
780,12293.35584821074
781,4878001.517821961
782,0.0
783,4479419.124963565
784,12267.003972423572
883,20832.376143306155
922,20832.376143306155
2,1, 1, 1, 0, 3, 0.00,60.00,Sunday
7,180128.23374917958
8,180128.23374917958
167,4894.938147387912
168,4894.938147387912
267,174229.70279008738
268,174229.70279008738
269,0.0
270,0.0
271,2485126.716788249
272,0.0
273,2485124.828037858
274,0.0
717,4911687.634165628
730,0.0
779,4512665.542305448
780,3469.3439050322468
781,4884647.506205034
782,0.0
783,4485625.372850733
784,3467.2980089273096
883,5208.094035826539
922,5208.094035826539
2,1, 1, 1, 0, 4, 0.00,60.00,Sunday
7,180128.23374917958
8,180128.23374917958
167,4894.938147387912
168,4894.938147387912
267,169762.27451341847
268,169762.27451341847
269,0.0
270,0.0
271,2414151.4199548075
272,0.0
273,2414175.130756753
274,0.0
717,4819559.0483090775
730,0.0
779,4429349.498193199
780,776.9008558153928
781,4792166.327264112
782,0.0
783,4401954.607631439
784,777.6336167641603
883,5208.094035826539
922,5208.094035826539
2,1, 1, 1, 0, 5, 0.00,60.00,Sunday
7,180128.23374917958
8,180128.23374917958
167,14684.814009597043
168,14684.814009597043
267,169762.27451341847
268,169762.27451341847
269,0.0
270,0.0
271,2325773.5735534267
272,0.0
273,2325829.8310119826
274,0.0
717,4651976.719447131
730,0.0
779,4275224.077704927
780,0.0
781,4625626.503340081
782,0.0
783,4248865.24969828
784,0.0
883,20832.376143306155
922,20832.376143306155
2,1, 1, 1, 0, 6, 0.00,60.00,Sunday
7,180128.23374917958
8,180128.23374917958
167,31817.09730917139
168,31817.09730917139
267,192099.415896763
268,192099.415896763
269,0.0
270,0.0
271,2167026.020568103
272,0.0
273,2167136.5356848957
274,0.0
717,4302282.121214008
730,0.0
779,3953398.89957869
780,1984.1326407924498
781,4268744.327605602
782,0.0
783,3919855.79813735
784,1994.5095390735332
883,140618.5389673166
922,140618.5389673166
2,1, 1, 1, 0, 7, 0.00,60.00,Sunday
7,180128.23374917958
8,180128.23374917958
167,34264.56616658199
168,34264.56616658199
267,241241.12694012097
268,241241.12694012097
269,0.0
270,0.0
271,2252019.9968543095
272,0.0
273,2252278.7402514615
274,0.0
717,4152230.490127624
730,0.0
779,3804418.883406319
780,12700.325231675833
781,4119537.8832950345
782,0.0
783,3771727.065783219
784,12739.237745723722
883,489560.8393676947
922,489560.8393676947
2,1, 1, 1, 0, 8, 0.00,60.00,Sunday
7,153108.99868680263
8,153108.99868680263
167,31817.09730917139
168,31817.09730917139
267,290382.83798347897
268,290382.83798347897
269,0.0
270,0.0
271,2467082.486579921
272,0.0
273,2467283.400234649
274,0.0
717,4250614.486198855
730,0.0
779,3892313.054698983
780,41721.338615361994
781,4216220.9405513415
782,0.0
783,3857920.283545371
784,41759.52556729222
883,520756.14161552687
922,520756.14161552687
2,1, 1, 1, 0, 9, 0.00,60.00,Sunday
7,70250.01116218003
8,70250.01116218003
167,6486.6079116215105
168,6705.922262357115
267,294850.26626014785
268,294850.26626014785
269,90841.05142443959
270,73098.59441818918
271,2422484.032481447
272,0.0
273,2422519.9618827263
274,0.0
717,4089075.8923629546
730,0.0
779,3746488.356111335
780,55218.45209842905
781,4065611.250348288
782,0.0
783,3723023.916953695
784,55228.45410294815
883,499977.0274393478
922,499977.0274393478
2,1, 1, 1, 0,10, 0.00,60.00,Sunday
7,45032.058437294894
8,45032.058437294894
167,2936.962758662738
168,2936.962758662738
267,299317.6945368168
268,299317.6945368168
269,315548.0458962894
270,252241.5409997268
271,2298827.8415082796
272,0.0
273,2298832.389563927
274,0.0
717,3685921.7981050764
730,0.0
779,3354095.4925603494
780,45240.15742566706
781,3719843.41187616
782,0.0
783,3388017.1195337754
784,45240.808376217974
883,437479.8990094293
922,437479.8990094293
2,1, 1, 1, 0,11, 0.00,60.00,Sunday
7,45032.058437294894
8,45032.058437294894
167,2936.962758662738
168,2936.962758662738
267,308252.55109015456
268,308252.55109015456
269,495772.7101791003
270,429903.3751139194
271,2194973.780071807
272,0.0
273,2195007.994783417
274,0.0
717,3217533.0869233785
730,0.0
779,2901076.2043582387
780,44733.47873651867
781,3276205.180426145
782,0.0
783,2959748.3602968543
784,44736.55717880677
883,395815.146722817
922,395815.146722817
2,1, 1, 1, 0,12, 0.00,60.00,Sunday
7,45032.058437294894
8,45032.058437294894
167,2936.962758662738
168,2936.962758662738
267,312719.97936682345
268,312719.97936682345
269,357212.57106251165
270,297614.7363802101
271,2046903.1903766464
272,0.0
273,2047020.0712576702
274,0.0
717,3106902.191185419
730,0.0
779,2808361.2060991633
780,39914.42029422207
781,3155845.7105928
782,0.0
783,2857305.110294209
784,39933.39251339818
883,317693.7361854189
922,317693.7361854189
2,1, 1, 1, 0,13, 0.00,60.00,Sunday
7,45032.058437294894
8,45032.058437294894
167,2936.962758662738
168,2936.962758662738
267,308252.55109015456
268,308252.55109015456
269,421383.3111390264
270,343816.2936473063
271,2240554.814772833
272,0.0
273,2240581.161678746
274,0.0
717,3510083.9779700646
730,0.0
779,3170083.0929964874
780,25602.964712188576
781,3578655.932544835
782,0.0
783,3238655.2216400765
784,25611.54729441321
883,276028.9838988067
922,276028.9838988067
2,1, 1, 1, 0,14, 0.00,60.00,Sunday
7,45032.058437294894
8,45032.058437294894
167,2936.962758662738
168,2936.962758662738
267,294850.26626014785
268,294850.26626014785
269,570394.780628253
270,442227.21706173336
271,2433742.066720409
272,0.0
273,2433895.1663475693
274,0.0
717,3693166.7721966794
730,0.0
779,3328920.594965461
780,34389.80559249542
781,3814997.335028163
782,0.0
783,3450751.4484392637
784,34404.135910944955
883,244780.41968384734
922,244780.41968384734
2,1, 1, 1, 0,15, 0.00,60.00,Sunday
7,45032.058437294894
8,45032.058437294894
167,2936.962758662738
168,2936.962758662738
267,290382.83798347897
268,290382.83798347897
269,416967.7378766757
270,308376.69082380057
271,2362243.446087064
272,0.0
273,2362596.3047018507
274,0.0
717,3773408.9194070897
730,0.0
779,3415134.6885991455
780,28495.227568475137
781,3887796.661838823
782,0.0
783,3529523.684663227
784,28557.03876944881
883,213531.85546888813
922,213531.85546888813
2,1, 1, 1, 0,16, 0.00,60.00,Sunday
7,45032.058437294894
8,45032.058437294894
167,5139.684989872303
168,5203.997358387932
267,303785.1228134857
268,303785.1228134857
269,207697.00168928126
270,147638.14139814532
271,2401972.139221216
272,0.0
273,2402081.3261245815
274,0.0
717,4089279.046110311
730,0.0
779,3722559.628431469
780,24148.516542111043
781,4156927.4676548443
782,0.0
783,3790208.535238343
784,24172.442733978616
883,244780.41968384734
922,244780.41968384734
2,1, 1, 1, 0,17, 0.00,60.00,Sunday
7,54038.470124753876
8,54038.470124753876
167,28578.51950225653
168,30700.994262111926
267,357394.2621335126
268,357394.2621335126
269,27337.139317984995
270,18000.8487731907
271,2430203.959774255
272,0.0
273,2430219.3113050694
274,0.0
717,4354470.669728872
730,0.0
779,3981605.6629313286
780,19982.595474167058
781,4358768.306176038
782,0.0
783,3985903.365592238
784,19985.86018810106
883,286445.17197045975
922,286445.17197045975
2,1, 1, 1, 0,18, 0.00,60.00,Sunday
7,93666.68154957339
8,93666.68154957339
167,48949.38017617903
168,48949.38017617903
267,446742.8276668907
268,446742.8276668907
269,0.0
270,0.0
271,2484669.6100888588
272,0.0
273,2484709.0525608226
274,0.0
717,4311969.612520778
730,0.0
779,3939203.103558127
780,27952.882312447084
781,4293960.096919789
782,0.0
783,3921193.7062331573
784,27958.71399255402
883,380190.86461533734
922,380190.86461533734
2,1, 1, 1, 0,19, 0.00,60.00,Sunday
7,156711.56336178622
8,156711.56336178622
167,66081.66347575338
168,66081.66347575338
267,446742.8276668907
268,446742.8276668907
269,0.0
270,0.0
271,2579147.78172165
272,0.0
273,2579170.8459355393
274,0.0
717,4261130.684156096
730,0.0
779,3888816.4707847065
780,45341.2932728359
781,4238374.781729941
782,0.0
783,3866060.6696652942
784,45346.288271099365
883,447896.08708108246
922,447896.08708108246
2,1, 1, 1, 0,20, 0.00,60.00,Sunday
7,156711.56336178622
8,156711.56336178622
167,78319.00862793982
168,78319.00862793982
267,415470.8297302083
268,415470.8297302083
269,0.0
270,0.0
271,2591068.678094023
272,0.0
273,2591045.8797769397
274,0.0
717,4309409.999048931
730,0.0
779,3937218.6013559885
780,47842.121768218385
781,4280028.616390961
782,0.0
783,3907837.156801021
784,47839.06989445614
883,427063.71093777625
922,427063.71093777625
2,1, 1, 1, 0,21, 0.00,60.00,Sunday
7,156711.56336178622
8,156711.56336178622
167,78319.00862793982
168,78319.00862793982
267,397601.11662353267
268,397601.11662353267
269,0.0
270,0.0
271,2611008.3353283275
272,0.0
273,2610986.849446086
274,0.0
717,4449386.814677783
730,0.0
779,4070094.4074603403
780,42570.33597072349
781,4410586.090861413
782,0.0
783,4031293.606905553
784,42566.55233051751
883,390607.05268699053
922,390607.05268699053
2,1, 1, 1, 0,22, 0.00,60.00,Sunday
7,180128.23374917958
8,180128.23374917958
167,53844.31832356695
168,53844.31832356695
267,379731.40351685707
268,379731.40351685707
269,0.0
270,0.0
271,2581776.1986400257
272,0.0
273,2581740.198622554
274,0.0
717,4485219.162727626
730,0.0
779,4107881.7600277453
780,40206.71037784386
781,4443025.429481078
782,0.0
783,4065687.9276810195
784,40201.824175718095
883,317693.7361854189
922,317693.7361854189
2,1, 1, 1, 0,23, 0.00,60.00,Sunday
7,180128.23374917958
8,180128.23374917958
167,29369.628019194086
168,29369.628019194086
267,317187.40764349233
268,317187.40764349233
269,0.0
270,0.0
271,2523082.668145241
272,0.0
273,2523030.594994616
274,0.0
717,4486743.000194819
730,0.0
779,4114308.0518396297
780,35187.35113086109
781,4448112.960076074
782,0.0
783,4075677.833412284
784,35178.55950323829
883,276028.9838988067
922,276028.9838988067
2,1, 1, 1, 0,24, 0.00,60.00,Sunday
7,180128.23374917958
8,180128.23374917958
167,12237.345152186434
168,12237.345152186434
267,259110.84004679657
268,259110.84004679657
269,0.0
270,0.0
271,2479337.8901874004
272,0.0
273,2479277.0807266273
274,0.0
717,4544763.634288732
730,0.0
779,4172191.882766751
780,28187.876897688373
781,4512023.805747634
782,0.0
783,4139451.863676615
784,28178.481746971604
883,151034.72703896966
922,151034.72703896966
2,2, 1, 2, 0, 1, 0.00,60.00,Monday
7,180128.23374917958
8,180128.23374917958
167,4894.938147387912
168,4894.938147387912
267,201034.2724501008
268,201034.2724501008
269,0.0
270,0.0
271,2378730.3877396462
272,0.0
273,2378650.758051219
274,0.0
717,4512326.499684533
730,0.0
779,4148045.874124066
780,21354.304393952454
781,4483102.062545809
782,0.0
783,4118821.185284902
784,21341.89413146828
883,41674.56569881832
922,41674.56569881832
2,2, 1, 2, 0, 2, 0.00,60.00,Monday
7,180128.23374917958
8,180128.23374917958
167,4894.938147387912
168,4894.938147387912
267,183164.55934342515
268,183164.55934342515
269,0.0
270,0.0
271,2329694.6622782443
272,0.0
273,2329641.403361749
274,0.0
717,4549396.936264935
730,0.0
779,4182445.130633248
780,8286.56666563802
781,4521113.454984
782,0.0
783,4154161.430158436
784,8275.75916151477
883,20837.28284940916
922,20837.28284940916
2,2, 1, 2, 0, 3, 0.00,60.00,Monday
7,180128.23374917958
8,180128.23374917958
167,4894.938147387912
168,4894.938147387912
267,174229.70279008738
268,174229.70279008738
269,0.0
270,0.0
271,2355836.4306876874
272,0.0
273,2355834.7460483355
274,0.0
717,4631263.271562259
730,0.0
779,4258235.8599221455
780,5467.6984964827625
781,4603719.249802058
782,0.0
783,4230691.822968431
784,5466.949369871736
883,5209.3207123522925
922,5209.3207123522925
2,2, 1, 2, 0, 4, 0.00,60.00,Monday
7,180128.23374917958
8,180128.23374917958
167,4894.938147387912
168,4894.938147387912
267,169762.27451341847
268,169762.27451341847
269,0.0
270,0.0
271,2296421.970654847
272,0.0
273,2296425.41754222
274,0.0
717,4546267.037555131
730,0.0
779,4181579.601675825
780,4643.551592964104
781,4518742.512532956
782,0.0
783,4154055.0837631654
784,4643.902132541825
883,5209.3207123522925
922,5209.3207123522925
2,2, 1, 2, 0, 5, 0.00,60.00,Monday
7,180128.23374917958
8,180128.23374917958
167,14684.814009597043
168,14684.814009597043
267,169762.27451341847
268,169762.27451341847
269,0.0
270,0.0
271,2320598.6247140276
272,0.0
273,2320605.764045563
274,0.0
717,4545720.05849649
730,0.0
779,4178677.202670254
780,6342.569696760529
781,4518984.22130465
782,0.0
783,4151941.3909901073
784,6343.827568269762
883,20837.28284940916
922,20837.28284940916
2,2, 1, 2, 0, 6, 0.00,60.00,Monday
7,180128.23374917958
8,180128.23374917958
167,31817.09730917139
168,31817.09730917139
267,192099.415896763
268,192099.415896763
269,0.0
270,0.0
271,2392079.2520841253
272,0.0
273,2392104.8675219966
274,0.0
717,4572039.531735718
730,0.0
779,4199112.045216675
780,10573.461876304918
781,4547048.532949548
782,0.0
783,4174121.1125546983
784,10576.722174905262
883,140651.65923351186
922,140651.65923351186
2,2, 1, 2, 0, 7, 0.00,60.00,Monday
7,180128.23374917958
8,180128.23374917958
167,34264.56616658199
168,34264.56616658199
267,241241.12694012097
268,241241.12694012097
269,0.0
270,0.0
271,2508201.7653992013
272,0.0
273,2508297.3979697623
274,0.0
717,4478956.09890304
730,0.0
779,4106351.5405317405
780,26495.655231007273
781,4454330.86158174
782,0.0
783,4081726.5708883307
784,26508.853272647593
883,489676.14696111536
922,489676.14696111536
2,2, 1, 2, 0, 8, 0.00,60.00,Monday
7,153108.99868680263
8,153108.99868680263
167,31817.09730917139
168,31817.09730917139
267,290382.83798347897
268,290382.83798347897
269,0.0
270,0.0
271,2553631.538406342
272,0.0
273,2553715.244061273
274,0.0
717,4330278.773362138
730,0.0
779,3966425.6645466043
780,45956.244919371056
781,4305500.454388605
782,0.0
783,3941647.6650422653
784,45971.996566599955
883,520878.796723166
922,520878.796723166
2,2, 1, 2, 0, 9, 0.00,60.00,Monday
7,70250.01116218003
8,70250.01116218003
167,5765.101261909404
168,6198.809656800804
267,294850.26626014785
268,294850.26626014785
269,106569.5439786524
270,86338.73927138787
271,2525579.071471264
272,0.0
273,2525601.3475779197
274,0.0
717,4222798.299927398
730,0.0
779,3864989.1840147534
780,49602.3053012907
781,4215705.828813812
782,0.0
783,3857896.814905971
784,49607.33471796411
883,500094.78838581993
922,500094.78838581993
2,2, 1, 2, 0,10, 0.00,60.00,Monday
7,45032.058437294894
8,45032.058437294894
167,2936.962758662738
168,2936.962758662738
267,299317.6945368168
268,299317.6945368168
269,342827.97769893333
270,274564.7018560444
271,2501988.7906969185
272,0.0
273,2502018.487155646
274,0.0
717,3972414.390477507
730,0.0
779,3614541.0823504664
780,46437.26423370279
781,4017748.0084743546
782,0.0
783,3659874.7754209335
784,46440.96578988777
883,437582.9398375923
922,437582.9398375923
2,2, 1, 2, 0,11, 0.00,60.00,Monday
7,45032.058437294894
8,45032.058437294894
167,2936.962758662738
168,2936.962758662738
267,308252.55109015456
268,308252.55109015456
269,604970.4833411701
270,541720.1319606444
271,2372658.307498155
272,0.0
273,2372792.0291109863
274,0.0
717,3402125.8518800284
730,0.0
779,3066821.441227665
780,51433.90026116511
781,3458879.5840860163
782,0.0
783,3123575.5442441604
784,51452.18332701859
883,395908.3741387742
922,395908.3741387742
2,2, 1, 2, 0,12, 0.00,60.00,Monday
7,45032.058437294894
8,45032.058437294894
167,2936.962758662738
168,2936.962758662738
267,312719.97936682345
268,312719.97936682345
269,739121.3701960138
270,649508.9580016657
271,2197451.7816429264
272,0.0
273,2197767.6324084634
274,0.0
717,2908157.86076513
730,0.0
779,2597378.76369721
780,50709.934377125915
781,2977162.111546481
782,0.0
783,2666383.944035536
784,50755.76681996759
883,317768.5634534898
922,317768.5634534898
2,2, 1, 2, 0,13, 0.00,60.00,Monday
7,45032.058437294894
8,45032.058437294894
167,2936.962758662738
168,2936.962758662738
267,308252.55109015456
268,308252.55109015456
269,464324.11332695483
270,376782.0980580666
271,2110361.273368234
272,0.0
273,2110508.383587761
274,0.0
717,3213609.566036918
730,0.0
779,2892725.462816743
780,20128.994979383904
781,3296020.344848324
782,0.0
783,2975137.0519416286
784,20168.94804011076
883,276093.9977546715
922,276093.9977546715
2,2, 1, 2, 0,14, 0.00,60.00,Monday
7,45032.058437294894
8,45032.058437294894
167,2936.962758662738
168,2936.962758662738
267,294850.26626014785
268,294850.26626014785
269,438953.58006815676
270,345998.7371480348
271,2156217.779911905
272,0.0
273,2156102.0486381687
274,0.0
717,3359803.6623667325
730,0.0
779,3034974.960218645
780,25372.44223398868
781,3440666.609305825
782,0.0
783,3115837.425912122
784,25348.71408945687
883,244838.07348055768
922,244838.07348055768
2,2, 1, 2, 0,15, 0.00,60.00,Monday
7,45032.058437294894
8,45032.058437294894
167,2936.962758662738
168,2936.962758662738
267,290382.83798347897
268,290382.83798347897
269,455134.73919062887
270,331871.89787951345
271,2128683.250933051
272,0.0
273,2128690.411335894
274,0.0
717,3389106.471362667
730,0.0
779,3062129.8511224636
780,19268.460229323977
781,3502588.173253638
782,0.0
783,3175611.6472512945
784,19273.106691511995
883,213582.14920644395
922,213582.14920644395
2,2, 1, 2, 0,16, 0.00,60.00,Monday
7,45032.058437294894
8,45032.058437294894
167,5139.684989872303
168,5139.684989872303
267,303785.1228134857
268,303785.1228134857
269,300107.05019514984
270,193632.64551089462
271,2185377.41136254
272,0.0
273,2185296.49408802
274,0.0
717,3598607.0909604463
730,0.0
779,3266762.2815100187
780,24489.85430168527
781,3710637.188620901
782,0.0
783,3378792.040928936
784,24473.177071152943
883,244838.07348055768
922,244838.07348055768
2,2, 1, 2, 0,17, 0.00,60.00,Monday
7,54038.470124753876
8,54038.470124753876
167,27990.066780790807
168,30040.894109310644
267,357394.2621335126
268,357394.2621335126
269,38427.36098373616
270,22866.682104706833
271,2100386.1295474162
272,0.0
273,2100411.128824222
274,0.0
717,3678690.7440291727
730,0.0
779,3362272.015105277
780,26739.549096345174
781,3697589.0966950664
782,0.0
783,3381170.4557826584
784,26743.88856304293
883,286512.639179376
922,286512.639179376
2,2, 1, 2, 0,18, 0.00,60.00,Monday
7,93666.68154957339
8,93666.68154957339
167,48949.38017617903
168,48949.38017617903
267,446742.8276668907
268,446742.8276668907
269,0.0
270,0.0
271,2022363.2209617863
272,0.0
273,2022384.992859061
274,0.0
717,3449594.3006530553
730,0.0
779,3151227.0398046114
780,32282.555282372734
781,3430040.759611829
782,0.0
783,3131673.5622861837
784,32285.68731740647
883,380280.41200171725
922,380280.41200171725
2,2, 1, 2, 0,19, 0.00,60.00,Monday
7,156711.56336178622
8,156711.56336178622
167,66081.66347575338
168,66081.66347575338
267,446742.8276668907
268,446742.8276668907
269,0.0
270,0.0
271,2077971.152766125
272,0.0
273,2078011.5217679145
274,0.0
717,3397132.9263456985
730,0.0
779,3096910.6131249056
780,39400.927525297266
781,3371235.8850047123
782,0.0
783,3071013.6970738685
784,39407.1050319583
883,448001.5812622971
922,448001.5812622971
2,2, 1, 2, 0,20, 0.00,60.00,Monday
7,156711.56336178622
8,156711.56336178622
167,78319.00862793982
168,78319.00862793982
267,415470.8297302083
268,415470.8297302083
269,0.0
270,0.0
271,2166720.825631641
272,0.0
273,2166760.6346216328
274,0.0
717,3556302.5389863257
730,0.0
779,3242691.331349493
780,40610.09972614613
781,3530107.338438739
782,0.0
783,3216496.2721727192
784,40617.0701107939
883,427164.2984128879
922,427164.2984128879
2,2, 1, 2, 0,21, 0.00,60.00,Monday
7,156711.56336178622
8,156711.56336178622
167,78319.00862793982
168,78319.00862793982
267,397601.11662353267
268,397601.11662353267
269,0.0
270,0.0
271,2276674.6486512003
272,0.0
273,2276716.7606905056
274,0.0
717,3811519.013434348
730,0.0
779,3476375.8414993477
780,36113.37451669396
781,3784733.672546332
782,0.0
783,3449590.638153944
784,36120.15614936368
883,390699.0534264219
922,390699.0534264219
2,2, 1, 2, 0,22, 0.00,60.00,Monday
7,180128.23374917958
8,180128.23374917958
167,53844.31832356695
168,53844.31832356695
267,379731.40351685707
268,379731.40351685707
269,0.0
270,0.0
271,2379846.385933549
272,0.0
273,2379871.3069021944
274,0.0
717,4049788.6687594806
730,0.0
779,3696644.0162708834
780,36191.061200538206
781,4021416.2075113044
782,0.0
783,3668271.66388784
784,36196.428870411364
883,317768.5634534898
922,317768.5634534898
2,2, 1, 2, 0,23, 0.00,60.00,Monday
7,180128.23374917958
8,180128.23374917958
167,29369.628019194086
168,29369.628019194086
267,317187.40764349233
268,317187.40764349233
269,0.0
270,0.0
271,2389687.4949646345
272,0.0
273,2389678.8510247893
274,0.0
717,4189688.3652910898
730,0.0
779,3831502.054204464
780,33750.19868405489
781,4161224.246174198
782,0.0
783,3803037.916132121
784,33749.264072570804
883,276093.9977546715
922,276093.9977546715
2,2, 1, 2, 0,24, 0.00,60.00,Monday
7,180128.23374917958
8,180128.23374917958
167,12237.345152186434
168,12237.345152186434
267,259110.84004679657
268,259110.84004679657
269,0.0
270,0.0
271,2321486.2924432848
272,0.0
273,2321428.9096946646
274,0.0
717,4199753.084904467
730,0.0
779,3848593.486518992
780,32738.772762828965
781,4171631.2296617776
782,0.0
783,3820471.478520359
784,32731.241026432097
883,151070.30065821644
922,151070.30065821644
2,3, 1, 3, 0, 1, 0.00,60.00,Tuesday
7,180128.23374917958
8,180128.23374917958
167,4894.938147387912
168,4894.938147387912
267,201034.2724501008
268,201034.2724501008
269,0.0
270,0.0
271,2190984.952452264
272,0.0
273,2190911.6636494463
274,0.0
717,4197361.738629662
730,0.0
779,3850809.143599419
780,15298.891193755526
781,4168844.229847644
782,0.0
783,3822291.3597819544
784,15285.330382863822
883,41684.15590808891
922,41684.15590808891
2,3, 1, 3, 0, 2, 0.00,60.00,Tuesday
7,180128.23374917958
8,180128.23374917958
167,4894.938147387912
168,4894.938147387912
267,183164.55934342515
268,183164.55934342515
269,0.0
270,0.0
271,1975289.5265617352
272,0.0
273,1975296.4151863004
274,0.0
717,3941456.9300473123
730,0.0
779,3618258.4766975567
780,1948.783576312053
781,3916230.653937219
782,0.0
783,3593031.4913379597
784,1947.0741471678366
883,20842.077954044456
922,20842.077954044456
2,3, 1, 3, 0, 3, 0.00,60.00,Tuesday
7,180128.23374917958
8,180128.23374917958
167,4894.938147387912
168,4894.938147387912
267,174229.70279008738
268,174229.70279008738
269,0.0
270,0.0
271,1929964.5394127711
272,0.0
273,1929992.7947647218
274,0.0
717,3818779.7465471737
730,0.0
779,3504123.4506028234
780,4289.467337294286
781,3793487.2745371335
782,0.0
783,3478831.0861712373
784,4294.77156657731
883,5210.519488511114
922,5210.519488511114
2,3, 1, 3, 0, 4, 0.00,60.00,Tuesday
7,180128.23374917958
8,180128.23374917958
167,4894.938147387912
168,4894.938147387912
267,169762.27451341847
268,169762.27451341847
269,0.0
270,0.0
271,1925183.9734880384
272,0.0
273,1925226.8318343249
274,0.0
717,3903129.3606013283
730,0.0
779,3587286.9796818085
780,228.6164618589737
781,3878349.891075488
782,0.0
783,3562502.530987615
784,229.02331787167896
883,5210.519488511114
922,5210.519488511114
2,3, 1, 3, 0, 5, 0.00,60.00,Tuesday
7,180128.23374917958
8,180128.23374917958
167,14684.814009597043
168,14684.814009597043
267,169762.27451341847
268,169762.27451341847
269,0.0
270,0.0
271,1968082.9425783777
272,0.0
273,1968179.3847807762
274,0.0
717,3998351.7535867575
730,0.0
779,3676393.382557242
780,0.0
781,3973278.870903544
782,0.0
783,3651305.180856611
784,0.0
883,20842.077954044456
922,20842.077954044456
2,3, 1, 3, 0, 6, 0.00,60.00,Tuesday
7,180128.23374917958
8,180128.23374917958
167,31817.09730917139
168,31817.09730917139
267,192099.415896763
268,192099.415896763
269,0.0
270,0.0
271,2070321.799428897
272,0.0
273,2070417.009947536
274,0.0
717,4021616.862963645
730,0.0
779,3688888.3695587735
780,6412.432676171193
781,3996532.9569715667
782,0.0
783,3663802.017933837
784,6426.138246641949
883,140684.02618980006
922,140684.02618980006
2,3, 1, 3, 0, 7, 0.00,60.00,Tuesday
7,180128.23374917958
8,180128.23374917958
167,34264.56616658199
168,34264.56616658199
267,241241.12694012097
268,241241.12694012097
269,0.0
270,0.0
271,2260753.0777182835
272,0.0
273,2260830.7034702715
274,0.0
717,3922614.824571503
730,0.0
779,3590460.0865769647
780,38759.35797643722
781,3897940.8449677373
782,0.0
783,3565786.3863802436
784,38773.13433201348
883,489788.83192004473
922,489788.83192004473
2,3, 1, 3, 0, 8, 0.00,60.00,Tuesday
7,153108.99868680263
8,153108.99868680263
167,31817.09730917139
168,31817.09730917139
267,290382.83798347897
268,290382.83798347897
269,0.0
270,0.0
271,2400435.259937258
272,0.0
273,2400438.552114114
274,0.0
717,3980330.231723499
730,0.0
779,3640274.2166697467
780,55515.2783883138
781,3955540.6651906874
782,0.0
783,3615484.698742288
784,55517.67490857401
883,520998.66207944334
922,520998.66207944334
2,3, 1, 3, 0, 9, 0.00,60.00,Tuesday
7,70250.01116218003
8,70250.01116218003
167,4405.444202879113
168,4405.444202879113
267,294850.26626014785
268,294850.26626014785
269,163654.90385374698
270,132431.97587800495
271,2446087.3963057008
272,0.0
273,2446083.3242274276
274,0.0
717,3982488.470918576
730,0.0
779,3636575.4302693647
780,57556.88601406089
781,3985325.940275541
782,0.0
783,3639412.8722484577
784,57555.53612934936
883,500209.87089706684
922,500209.87089706684
2,3, 1, 3, 0,10, 0.00,60.00,Tuesday
7,45032.058437294894
8,45032.058437294894
167,2936.962758662738
168,2936.962758662738
267,299317.6945368168
268,299317.6945368168
269,553959.182038768
270,407949.1222795534
271,2405570.877949727
272,0.0
273,2405667.933415366
274,0.0
717,3633318.2438629456
730,0.0
779,3287311.4414485097
780,50192.94777416328
781,3729779.8992324234
782,0.0
783,3383773.336302539
784,50204.755723870905
883,437683.6370349335
922,437683.6370349335
2,3, 1, 3, 0,11, 0.00,60.00,Tuesday
7,45032.058437294894
8,45032.058437294894
167,2936.962758662738
168,2936.962758662738
267,308252.55109015456
268,308252.55109015456
269,1405469.7196737665
270,1534320.2534331733
271,2307601.270986871
272,0.0
273,2307653.021920003
274,0.0
717,2703830.656474366
730,0.0
779,2366014.142051655
780,41510.4694926253
781,2610574.0826117955
782,0.0
783,2272757.8781279176
784,41525.75123894062
883,395999.4811268446
922,395999.4811268446
2,3, 1, 3, 0,12, 0.00,60.00,Tuesday
7,45032.058437294894
8,45032.058437294894
167,2936.962758662738
168,2936.962758662738
267,312719.97936682345
268,312719.97936682345
269,661020.8133296628
270,601600.7224730755
271,2215581.9456521533
272,0.0
273,2215555.2270310116
274,0.0
717,3068172.7012677384
730,0.0
779,2736057.9366821907
780,31470.583893638082
781,3035894.7212040043
782,0.0
783,2703779.845301211
784,31465.09532059408
883,317841.688799178
922,317841.688799178
2,3, 1, 3, 0,13, 0.00,60.00,Tuesday
7,45032.058437294894
8,45032.058437294894
167,2936.962758662738
168,2936.962758662738
267,308252.55109015456
268,308252.55109015456
269,931515.6140591503
270,773044.4372689695
271,2118160.2751268507
272,0.0
273,2118234.090239223
274,0.0
717,2784135.424865988
730,0.0
779,2467429.432548973
780,33044.79385407869
781,2898815.6532483166
782,0.0
783,2582109.7688812395
784,33050.11639965956
883,276157.5328910891
922,276157.5328910891