Program Version,EnergyPlus, Version 9.6.0-4b123cf80f, YMD=2022.02.19 18:19
1,5,Environment Title[],Latitude[deg],Longitude[deg],Time Zone[],Elevation[m]
2,8,Day of Simulation[],Month[],Day of Month[],DST Indicator[1=yes 0=no],Hour[],StartMinute[],EndMinute[],DayType
3,5,Cumulative Day of Simulation[],Month[],Day of Month[],DST Indicator[1=yes 0=no],DayType  ! When Daily Report Variables Requested
4,2,Cumulative Days of Simulation[],Month[]  ! When Monthly Report Variables Requested
5,1,Cumulative Days of Simulation[] ! When Run Period Report Variables Requested
6,1,Calendar Year of Simulation[] ! When Annual Report Variables Requested
7,1,ZONE1_1_D57262A3,Zone People Total Heating Energy [J] !Hourly
8,1,ZONE2_2_5D6F47E4,Zone People Total Heating Energy [J] !Hourly
167,1,ZONE1_1_D57262A3,Zone Lights Electricity Energy [J] !Hourly
168,1,ZONE2_2_5D6F47E4,Zone Lights Electricity Energy [J] !Hourly
267,1,ZONE1_1_D57262A3,Zone Electric Equipment Electricity Energy [J] !Hourly
268,1,ZONE2_2_5D6F47E4,Zone Electric Equipment Electricity Energy [J] !Hourly
269,1,ZONE1_1_D57262A3,Zone Windows Total Transmitted Solar Radiation Energy [J] !Hourly
270,1,ZONE2_2_5D6F47E4,Zone Windows Total Transmitted Solar Radiation Energy [J] !Hourly
271,1,ZONE1_1_D57262A3,Zone Infiltration Total Heat Loss Energy [J] !Hourly
272,1,ZONE1_1_D57262A3,Zone Infiltration Total Heat Gain Energy [J] !Hourly
273,1,ZONE2_2_5D6F47E4,Zone Infiltration Total Heat Loss Energy [J] !Hourly
274,1,ZONE2_2_5D6F47E4,Zone Infiltration Total Heat Gain Energy [J] !Hourly
717,1,ZONE1_1_D57262A3 IDEAL LOADS AIR SYSTEM,Zone Ideal Loads Supply Air Total Heating Energy [J] !Hourly
730,1,ZONE1_1_D57262A3 IDEAL LOADS AIR SYSTEM,Zone Ideal Loads Supply Air Total Cooling Energy [J] !Hourly
779,1,ZONE1_1_D57262A3 IDEAL LOADS AIR SYSTEM,Zone Ideal Loads Zone Total Heating Energy [J] !Hourly
780,1,ZONE1_1_D57262A3 IDEAL LOADS AIR SYSTEM,Zone Ideal Loads Zone Total Cooling Energy [J] !Hourly
781,1,ZONE2_2_5D6F47E4 IDEAL LOADS AIR SYSTEM,Zone Ideal Loads Supply Air Total Heating Energy [J] !Hourly
782,1,ZONE2_2_5D6F47E4 IDEAL LOADS AIR SYSTEM,Zone Ideal Loads Supply Air Total Cooling Energy [J] !Hourly
783,1,ZONE2_2_5D6F47E4 IDEAL LOADS AIR SYSTEM,Zone Ideal Loads Zone Total Heating Energy [J] !Hourly
784,1,ZONE2_2_5D6F47E4 IDEAL LOADS AIR SYSTEM,Zone Ideal Loads Zone Total Cooling Energy [J] !Hourly
883,1,2019::MIDRISEAPARTMENT::APARTMENT_SHW..ZONE2_2_5D6F47E4,Water Use Equipment Heating Energy [J] !Hourly
922,1,2019::MIDRISEAPARTMENT::APARTMENT_SHW..ZONE1_1_D57262A3,Water Use Equipment Heating Energy [J] !Hourly
End of Data Dictionary
1,RUN PERIOD 1,  47.47,-122.32,  -8.00, 122.00
2,1, 1, 1, 0, 1, 0.00,60.00,Sunday
7,450320.58437294525
8,450320.5843729513
167,12237.34536846968
168,12237.345368469847
267,502585.68112524773
268,502585.6811252547
269,0.0
270,0.0
271,1181027.0968036088
272,0.0
273,1748550.6040716919
274,0.0
717,5746191.423709748
730,0.0
779,4782178.056157761
780,308796.4167736413
781,6458322.46480201
782,0.0
783,5492981.260823689
784,243326.53292727534
883,104161.88071653164
922,104161.88071653
2,1, 1, 1, 0, 2, 0.00,60.00,Sunday
7,450320.58437294525
8,450320.5843729513
167,12237.34536846968
168,12237.345368469847
267,457911.3983585591
268,457911.3983585654
269,0.0
270,0.0
271,1118043.1577869912
272,0.0
273,1662219.2218167824
274,0.0
717,5964561.282936491
730,0.0
779,4971458.031089637
780,213134.89588173214
781,6728166.9145347215
782,0.0
783,5733874.154789299
784,154485.39477652224
883,52080.94035826582
922,52080.940358265
2,1, 1, 1, 0, 3, 0.00,60.00,Sunday
7,450320.58437294525
8,450320.5843729513
167,12237.34536846968
168,12237.345368469847
267,435574.25697521475
268,435574.25697522087
269,0.0
270,0.0
271,1043200.967870272
272,0.0
273,1566971.884937786
274,0.0
717,5983657.463210337
730,0.0
779,4988459.069298586
780,124878.75901021407
781,6740385.484855704
782,0.0
783,5744292.139654296
784,80752.57311860305
883,13020.235089566455
922,13020.23508956625
2,1, 1, 1, 0, 4, 0.00,60.00,Sunday
7,450320.58437294525
8,450320.5843729513
167,12237.34536846968
168,12237.345368469847
267,424405.68628354266
268,424405.6862835484
269,0.0
270,0.0
271,981060.0642997045
272,0.0
273,1487800.1551051463
274,0.0
717,5880317.066289258
730,0.0
779,4904817.168064207
780,75568.13571136496
781,6603644.268620383
782,0.0
783,5627508.622880741
784,44222.169363103465
883,13020.235089566455
922,13020.23508956625
2,1, 1, 1, 0, 5, 0.00,60.00,Sunday
7,450320.58437294525
8,450320.5843729513
167,36712.03502399229
168,36712.0350239928
267,424405.68628354266
268,424405.6862835484
269,0.0
270,0.0
271,923080.8839808144
272,0.0
273,1411310.1100910183
274,0.0
717,5673350.612995623
730,0.0
779,4729232.1891160635
780,43024.44585550329
781,6334987.877763892
782,0.0
783,5390439.821336876
784,21841.1190384546
883,52080.94035826582
922,52080.940358265
2,1, 1, 1, 0, 6, 0.00,60.00,Sunday
7,450320.58437294525
8,450320.5843729513
167,79542.7432729278
168,79542.7432729289
267,480248.5397419035
268,480248.53974191006
269,0.0
270,0.0
271,856784.9710921339
272,0.0
273,1315654.0273329718
274,0.0
717,5228880.477941746
730,0.0
779,4356079.138570703
780,39215.70303807239
781,5790947.338187508
782,0.0
783,4917841.961091726
784,24224.914919277122
883,351546.34741829423
922,351546.34741828876
2,1, 1, 1, 0, 7, 0.00,60.00,Sunday
7,450320.58437294525
8,450320.5843729513
167,85661.41541645429
168,85661.41541645545
267,603102.8173502974
268,603102.8173503056
269,0.0
270,0.0
271,919646.9763163972
272,0.0
273,1409297.8575854776
274,0.0
717,4895828.42726942
730,0.0
779,4027515.9026092365
780,91730.79082947211
781,5422388.355971334
782,0.0
783,4553748.633543491
784,75598.08094247128
883,1223902.0984192463
922,1223902.0984192274
2,1, 1, 1, 0, 8, 0.00,60.00,Sunday
7,382772.49671700347
8,382772.49671700865
167,79542.7432729278
168,79542.7432729289
267,725957.0949586912
268,725957.0949587013
269,0.0
270,0.0
271,1084435.608958177
272,0.0
273,1641988.1583827513
274,0.0
717,4967060.71178182
730,0.0
779,4074243.876489496
780,249101.4927760926
781,5547827.960938786
782,0.0
783,4654383.653195869
784,218163.53412210665
883,1301890.3540388264
922,1301890.3540388069
2,1, 1, 1, 0, 9, 0.00,60.00,Sunday
7,175625.0279054486
8,175625.027905451
167,18873.257313483482
168,16722.494805124985
267,737125.6656503635
268,737125.6656503736
269,182964.48250860348
270,238180.54635947198
271,1145236.2135211313
272,0.0
273,1705962.947166393
274,0.0
717,4839798.571052683
730,0.0
779,3988092.647943008
780,372885.0385479481
781,5289067.729264829
782,0.0
783,4436292.958150921
784,320184.7561193756
883,1249942.5685983796
922,1249942.56859836
2,1, 1, 1, 0,10, 0.00,60.00,Sunday
7,112580.14609323631
8,112580.14609323782
167,7342.406896656785
168,7342.4068966568875
267,748294.2363420356
268,748294.236342046
269,691341.9232532333
270,821284.2527228361
271,1134538.5888572158
272,0.0
273,1666593.1385131003
274,0.0
717,4180526.1354362266
730,0.0
779,3356740.8096797974
780,398108.85080789414
781,4224779.242636917
782,0.0
783,3399566.504038157
784,327729.28361500346
883,1093699.747523582
922,1093699.7475235646
2,1, 1, 1, 0,11, 0.00,60.00,Sunday
7,112580.14609323631
8,112580.14609323782
167,7342.406896656785
168,7342.4068966568875
267,770631.3777253799
268,770631.3777253905
269,1027743.7170074863
270,1154296.611857979
271,1093235.2899007145
272,0.0
273,1593631.2831976567
274,0.0
717,3461252.7439905885
730,0.0
779,2675898.866490402
780,397231.21573870984
781,3265217.840007219
782,0.0
783,2478288.0330488016
784,319528.93514573254
883,989537.8668070504
922,989537.866807035
2,1, 1, 1, 0,12, 0.00,60.00,Sunday
7,112580.14609323631
8,112580.14609323782
167,7342.406896656785
168,7342.4068966568875
267,781799.948417052
268,781799.9484170629
269,710513.9405569311
270,800715.505425913
271,1029834.3660679345
272,0.0
273,1492380.2724637326
274,0.0
717,3427185.3383297753
730,0.0
779,2686536.495529739
780,381006.9345532431
781,3345223.171871682
782,0.0
783,2602941.580179046
784,300503.13285828545
883,794234.3404635536
922,794234.3404635412
2,1, 1, 1, 0,13, 0.00,60.00,Sunday
7,112580.14609323631
8,112580.14609323782
167,7342.406896656785
168,7342.4068966568875
267,770631.3777253799
268,770631.3777253905
269,829226.6101588926
270,935183.4665481986
271,1072671.8158059104
272,0.0
273,1565860.5461555861
274,0.0
717,3884630.1651953915
730,0.0
779,3039698.8227559556
780,314030.1276488285
781,3906430.5357192825
782,0.0
783,3059947.3429949693
784,237515.08717915707
883,690072.4597470218
922,690072.4597470112
2,1, 1, 1, 0,14, 0.00,60.00,Sunday
7,112580.14609323631
8,112580.14609323782
167,7342.406896656785
168,7342.4068966568875
267,737125.6656503635
268,737125.6656503736
269,1088915.4040856974
270,1229227.9624546773
271,1122970.177340189
272,0.0
273,1653919.3235278404
274,0.0
717,4100886.049230921
730,0.0
779,3194697.258952902
780,304233.6601371459
781,4109833.26313152
782,0.0
783,3202246.7258631554
784,235316.7880813473
883,611951.0492096231
922,611951.0492096137
2,1, 1, 1, 0,15, 0.00,60.00,Sunday
7,112580.14609323631
8,112580.14609323782
167,7342.406896656785
168,7342.4068966568875
267,725957.0949586912
268,725957.0949587013
269,712986.0508134644
270,883918.831824804
271,1085817.6144215693
272,0.0
273,1601886.4437559864
274,0.0
717,4344200.133826867
730,0.0
779,3452758.043114747
780,280466.065805582
781,4430792.593814821
782,0.0
783,3538034.878245532
784,215598.28173503967
883,533829.6386722245
922,533829.6386722162
2,1, 1, 1, 0,16, 0.00,60.00,Sunday
7,112580.14609323631
8,112580.14609323782
167,13750.966076848252
168,12849.21247468083
267,759462.8070337079
268,759462.8070337183
269,325884.68007379846
270,413412.7525452545
271,1081235.4835968558
272,0.0
273,1603023.5940472656
274,0.0
717,4824671.689068577
730,0.0
779,3911661.171972368
780,247142.56030430633
781,5175804.353611651
782,0.0
783,4261596.205729363
784,188092.55467059548
883,611951.0492096231
922,611951.0492096137
2,1, 1, 1, 0,17, 0.00,60.00,Sunday
7,135096.17531188353
8,135096.1753118854
167,78094.54541116228
168,75318.0274308111
267,893485.6553337739
268,893485.655333786
269,38589.96556892612
270,45953.28845065081
271,1081328.1502895416
272,0.0
273,1609521.0837258156
274,0.0
717,5137464.577181575
730,0.0
779,4208830.254848861
780,223916.54134840457
781,5731518.107040546
782,0.0
783,4801783.43426559
784,169663.0096519018
883,716112.929926155
922,716112.9299261438
2,1, 1, 1, 0,18, 0.00,60.00,Sunday
7,234166.70387393152
8,234166.70387393472
167,122373.45044044657
168,122373.45044044827
267,1116857.0691672175
268,1116857.0691672326
269,0.0
270,0.0
271,1105904.1826676424
272,0.0
273,1649869.7398696379
274,0.0
717,4943748.3161998885
730,0.0
779,4015333.43889106
780,242520.88763021602
781,5521981.532054291
782,0.0
783,4592515.797242092
784,190707.63916040672
883,950477.1615383514
922,950477.1615383361
2,1, 1, 1, 0,19, 0.00,60.00,Sunday
7,391778.90840446233
8,391778.9084044677
167,165204.15868938205
168,165204.15868938432
267,1116857.0691672175
268,1116857.0691672326
269,0.0
270,0.0
271,1181111.0439103774
272,0.0
273,1757473.9885583688
274,0.0
717,4785913.774182627
730,0.0
779,3859376.1807504715
780,322800.822230053
781,5349543.101107865
782,0.0
783,4421849.906084929
784,265823.0948377019
883,1119740.217702715
922,1119740.2177026975
2,1, 1, 1, 0,20, 0.00,60.00,Sunday
7,391778.90840446233
8,391778.9084044677
167,195797.52156984792
168,195797.52156985062
267,1038677.0743255123
268,1038677.0743255264
269,0.0
270,0.0
271,1229896.0640891653
272,0.0
273,1817220.7886478812
274,0.0
717,4876268.065779863
730,0.0
779,3951080.978667248
780,380501.75419667084
781,5466113.289043756
782,0.0
783,4539542.664929045
784,312285.5153376602
883,1067659.277344449
922,1067659.2773444324
2,1, 1, 1, 0,21, 0.00,60.00,Sunday
7,391778.90840446233
8,391778.9084044677
167,195797.52156984792
168,195797.52156985062
267,994002.7915588234
268,994002.7915588372
269,0.0
270,0.0
271,1251332.7412146786
272,0.0
273,1840379.7356962957
274,0.0
717,5078172.168745939
730,0.0
779,4135627.005981758
780,386770.8261985788
781,5728163.01540788
782,0.0
783,4784073.903071477
784,310645.33577409765
883,976517.6317174842
922,976517.6317174688
2,1, 1, 1, 0,22, 0.00,60.00,Sunday
7,450320.58437294525
8,450320.5843729513
167,134610.79580891624
168,134610.7958089181
267,949328.5087921347
268,949328.5087921476
269,0.0
270,0.0
271,1236008.2276035817
272,0.0
273,1813557.4786664099
274,0.0
717,5170734.563306556
730,0.0
779,4233024.7903289255
780,378291.8756214463
781,5843026.172184564
782,0.0
783,4903717.198361968
784,299442.183377135
883,794234.3404635536
922,794234.3404635412
2,1, 1, 1, 0,23, 0.00,60.00,Sunday
7,450320.58437294525
8,450320.5843729513
167,73424.07004798458
168,73424.0700479856
267,792968.5191087241
268,792968.5191087351
269,0.0
270,0.0
271,1198901.5516452978
272,0.0
273,1758341.420812349
274,0.0
717,5252288.589984819
730,0.0
779,4326540.810788896
780,351240.60092109494
781,5907667.969719152
782,0.0
783,4980346.787553722
784,273662.8905837961
883,690072.4597470218
922,690072.4597470112
2,1, 1, 1, 0,24, 0.00,60.00,Sunday
7,450320.58437294525
8,450320.5843729513
167,30593.362880465826
168,30593.36288046625
267,647777.100116986
268,647777.1001169949
269,0.0
270,0.0
271,1156575.4752234314
272,0.0
273,1700030.286872982
274,0.0
717,5407074.38590252
730,0.0
779,4480468.961643366
780,308318.07291112875
781,6062846.703780518
782,0.0
783,5134763.443627445
784,235452.36264730498
883,377586.8175974272
922,377586.81759742124
2,2, 1, 2, 0, 1, 0.00,60.00,Monday
7,450320.58437294525
8,450320.5843729513
167,12237.34536846968
168,12237.345368469847
267,502585.68112524773
268,502585.6811252547
269,0.0
270,0.0
271,1078002.8304769741
272,0.0
273,1591611.6323795738
274,0.0
717,5467601.140755706
730,0.0
779,4560871.906856036
780,249244.21059525217
781,6093706.403262449
782,0.0
783,5185683.318987318
784,185450.03224902425
883,104186.41424704665
922,104186.41424704503
2,2, 1, 2, 0, 2, 0.00,60.00,Monday
7,450320.58437294525
8,450320.5843729513
167,12237.34536846968
168,12237.345368469847
267,457911.3983585591
268,457911.3983585654
269,0.0
270,0.0
271,1012646.974113008
272,0.0
273,1507707.1436261465
274,0.0
717,5531398.162897014
730,0.0
779,4616990.361176089
780,167238.7284971756
781,6157289.068449029
782,0.0
783,5241831.283796309
784,115468.60137747644
883,52093.20712352332
922,52093.207123522516
2,2, 1, 2, 0, 3, 0.00,60.00,Monday
7,450320.58437294525
8,450320.5843729513
167,12237.34536846968
168,12237.345368469847
267,435574.25697521475
268,435574.25697522087
269,0.0
270,0.0
271,981055.2095278138
272,0.0
273,1477095.950586566
274,0.0
717,5640530.292974245
730,0.0
779,4709960.932654211
780,112239.63129514258
781,6295605.751816576
782,0.0
783,5364254.863867288
784,73705.8766131804
883,13023.30178088083
922,13023.301780880629
2,2, 1, 2, 0, 4, 0.00,60.00,Monday
7,450320.58437294525
8,450320.5843729513
167,12237.34536846968
168,12237.345368469847
267,424405.68628354266
268,424405.6862835484
269,0.0
270,0.0
271,934158.9817780771
272,0.0
273,1418153.365810565
274,0.0
717,5556566.507662318
730,0.0
779,4646267.248443311
780,81589.9397320783
781,6181988.152556133
782,0.0
783,5271116.229363182
784,53354.35053323035
883,13023.30178088083
922,13023.301780880629
2,2, 1, 2, 0, 5, 0.00,60.00,Monday
7,450320.58437294525
8,450320.5843729513
167,36712.03502399229
168,36712.0350239928
267,424405.68628354266
268,424405.6862835484
269,0.0
270,0.0
271,931203.1623657334
272,0.0
273,1422759.3657205722
274,0.0
717,5530743.740940496
730,0.0
779,4614241.473160675
780,70332.88387587959
781,6147764.550060041
782,0.0
783,5230831.39584136
784,49087.73308479995
883,52093.20712352332
922,52093.207123522516
2,2, 1, 2, 0, 6, 0.00,60.00,Monday
7,450320.58437294525
8,450320.5843729513
167,79542.7432729278
168,79542.7432729289
267,480248.5397419035
268,480248.53974191006
269,0.0
270,0.0
271,962883.2780969458
272,0.0
273,1474975.046223395
274,0.0
717,5506648.943815813
730,0.0
779,4575457.049685455
780,81992.39290767405
781,6144135.051001563
782,0.0
783,5212570.61660188
784,63624.039941094365
883,351629.14808378246
922,351629.14808377705
2,2, 1, 2, 0, 7, 0.00,60.00,Monday
7,450320.58437294525
8,450320.5843729513
167,85661.41541645429
168,85661.41541645545
267,603102.8173502974
268,603102.8173503056
269,0.0
270,0.0
271,1048771.1001821333
272,0.0
273,1599479.0840078143
274,0.0
717,5275388.705452302
730,0.0
779,4345720.701742094
780,157128.85310969394
781,5900302.443841866
782,0.0
783,4970171.484950418
784,134302.53102602938
883,1224190.3674027983
922,1224190.367402779
2,2, 1, 2, 0, 8, 0.00,60.00,Monday
7,382772.49671700347
8,382772.49671700865
167,79542.7432729278
168,79542.7432729289
267,725957.0949586912
268,725957.0949587013
269,0.0
270,0.0
271,1151409.2073661056
272,0.0
273,1732327.1807464105
274,0.0
717,5038722.522798487
730,0.0
779,4132766.100977346
780,296155.5760829614
781,5616837.537382671
782,0.0
783,4710064.999732962
784,255916.42655979464
883,1302196.9918079255
922,1302196.9918079055
2,2, 1, 2, 0, 9, 0.00,60.00,Monday
7,175625.0279054486
8,175625.027905451
167,17260.835371210975
168,15613.167980978034
267,737125.6656503635
268,737125.6656503736
269,212869.25537473126
270,256058.05938019656
271,1201464.2751859215
272,0.0
273,1783052.8236242635
274,0.0
717,4935399.63469337
730,0.0
779,4046019.9414670845
780,377589.6591386613
781,5396391.52653663
782,0.0
783,4505797.636791028
784,317722.8686892874
883,1250236.9709645596
922,1250236.9709645405
2,2, 1, 2, 0,10, 0.00,60.00,Monday
7,112580.14609323631
8,112580.14609323782
167,7342.406896656785
168,7342.4068966568875
267,748294.2363420356
268,748294.236342046
269,739403.8311606608
270,871528.4915233164
271,1217708.5939321711
272,0.0
273,1790311.594210787
274,0.0
717,4482595.543814918
730,0.0
779,3593732.554576548
780,403066.1029241811
781,4604017.013586672
782,0.0
783,3713660.320229956
784,329417.9989938321
883,1093957.3495939898
922,1093957.3495939726
2,2, 1, 2, 0,11, 0.00,60.00,Monday
7,112580.14609323631
8,112580.14609323782
167,7342.406896656785
168,7342.4068966568875
267,770631.3777253799
268,770631.3777253905
269,1268125.9768029293
270,1418829.4209275541
271,1174739.8078645575
272,0.0
273,1714105.996299959
274,0.0
717,3624844.874550676
730,0.0
779,2792562.97351693
780,423389.6306715055
781,3442712.0451829773
782,0.0
783,2608789.6558348523
784,342504.2314883839
883,989770.935346943
922,989770.9353469278
2,2, 1, 2, 0,12, 0.00,60.00,Monday
7,112580.14609323631
8,112580.14609323782
167,7342.406896656785
168,7342.4068966568875
267,781799.948417052
268,781799.9484170629
269,1503870.5204521695
270,1679955.7786788323
271,1112353.8446423425
272,0.0
273,1610370.248845478
274,0.0
717,2943104.8216386973
730,0.0
779,2172301.836535955
780,429746.3136048591
781,2545438.4005359537
782,0.0
783,1772829.6647314653
784,343433.3843157983
883,794421.4086337305
922,794421.4086337184
2,2, 1, 2, 0,13, 0.00,60.00,Monday
7,112580.14609323631
8,112580.14609323782
167,7342.406896656785
168,7342.4068966568875
267,770631.3777253799
268,770631.3777253905
269,913264.7168902879
270,1034432.8411286443
271,1042163.3490405077
272,0.0
273,1507549.2595707234
274,0.0
717,3452032.6343565136
730,0.0
779,2655364.0438652495
780,323558.19948309415
781,3356806.1646123086
782,0.0
783,2558432.1728317426
784,239472.2216413129
883,690234.9943866839
922,690234.9943866733
2,2, 1, 2, 0,14, 0.00,60.00,Monday
7,112580.14609323631
8,112580.14609323782
167,7342.406896656785
168,7342.4068966568875
267,737125.6656503635
268,737125.6656503736
269,848731.60205969
270,964780.675607033
271,1009136.4942698254
272,0.0
273,1474895.377730277
274,0.0
717,3737810.2081417106
730,0.0
779,2930034.535282044
780,275252.3942486694
781,3739477.616308561
782,0.0
783,2930263.6389475334
784,204335.80635239842
883,612095.183701399
922,612095.1837013895
2,2, 1, 2, 0,15, 0.00,60.00,Monday
7,112580.14609323631
8,112580.14609323782
167,7342.406896656785
168,7342.4068966568875
267,725957.0949586912
268,725957.0949587013
269,759945.865507981
270,958731.3756998348
271,977597.1702037157
272,0.0
273,1438116.9706850604
274,0.0
717,3889496.513809466
730,0.0
779,3075900.107033291
780,237758.59866519022
781,3818215.287406436
782,0.0
783,3003359.150682341
784,175646.75135279226
883,533955.3730161139
922,533955.3730161057
2,2, 1, 2, 0,16, 0.00,60.00,Monday
7,112580.14609323631
8,112580.14609323782
167,12849.212474680653
168,12849.21247468083
267,759462.8070337079
268,759462.8070337183
269,391414.32974793157
270,544901.8630032716
271,979989.9298869164
272,0.0
273,1452904.4406946783
274,0.0
717,4306678.946207746
730,0.0
779,3480399.180791854
780,225523.90759240522
781,4422791.178191072
782,0.0
783,3595420.9275292065
784,171756.78615003795
883,612095.183701399
922,612095.1837013895
2,2, 1, 2, 0,17, 0.00,60.00,Monday
7,135096.17531188353
8,135096.1753118854
167,76567.65943621917
168,73086.5293945501
267,893485.6553337739
268,893485.655333786
269,45271.707247508995
270,55676.80620675311
271,953347.7503869815
272,0.0
273,1414267.6361459997
274,0.0
717,4384509.387995489
730,0.0
779,3596892.217780817
780,235950.21673544898
781,4754495.864264664
782,0.0
783,3965841.647056726
784,184817.90491905066
883,716281.5979484457
922,716281.5979484346
2,2, 1, 2, 0,18, 0.00,60.00,Monday
7,234166.70387393152
8,234166.70387393472
167,122373.45044044657
168,122373.45044044827
267,1116857.0691672175
268,1116857.0691672326
269,0.0
270,0.0
271,937379.0672592312
272,0.0
273,1387507.1232642122
274,0.0
717,3966230.4298663316
730,0.0
779,3223998.500278413
780,262458.11326340685
781,4264647.834683594
782,0.0
783,3521362.2253706665
784,210505.71322402114
883,950701.0300043009
922,950701.0300042857
2,2, 1, 2, 0,19, 0.00,60.00,Monday
7,391778.90840446233
8,391778.9084044677
167,165204.15868938205
168,165204.15868938432
267,1116857.0691672175
268,1116857.0691672326
269,0.0
270,0.0
271,990567.978357717
272,0.0
273,1461122.2632644423
274,0.0
717,3790149.106052897
730,0.0
779,3043955.3814447243
780,313576.59602386254
781,4070269.750628672
782,0.0
783,3322904.398099942
784,255808.6794725872
883,1120003.9531557513
922,1120003.9531557343
2,2, 1, 2, 0,20, 0.00,60.00,Monday
7,391778.90840446233
8,391778.9084044677
167,195797.52156984792
168,195797.52156985062
267,1038677.0743255123
268,1038677.0743255264
269,0.0
270,0.0
271,1053651.7639242075
272,0.0
273,1547403.4355953918
274,0.0
717,3980541.767442896
730,0.0
779,3201581.648134623
780,351401.5169121908
781,4321649.506676838
782,0.0
783,3541345.202936086
784,285125.58343326976
883,1067910.7460322278
922,1067910.7460322115
2,2, 1, 2, 0,21, 0.00,60.00,Monday
7,391778.90840446233
8,391778.9084044677
167,195797.52156984792
168,195797.52156985062
267,994002.7915588234
268,994002.7915588372
269,0.0
270,0.0
271,1103163.6307806876
272,0.0
273,1617373.2638966935
274,0.0
717,4288908.379703842
730,0.0
779,3456360.1821341035
780,352083.42003386875
781,4717352.226760101
782,0.0
783,3883344.480435957
784,280119.36970049783
883,976747.6335660623
922,976747.6335660473
2,2, 1, 2, 0,22, 0.00,60.00,Monday
7,450320.58437294525
8,450320.5843729513
167,134610.79580891624
168,134610.7958089181
267,949328.5087921347
268,949328.5087921476
269,0.0
270,0.0
271,1137350.3551227904
272,0.0
273,1669117.157389113
274,0.0
717,4601159.330247393
730,0.0
779,3723515.8167482065
780,347760.51887346694
781,5115975.950121576
782,0.0
783,4236841.725920446
784,274260.0073877667
883,794421.4086337305
922,794421.4086337184
2,2, 1, 2, 0,23, 0.00,60.00,Monday
7,450320.58437294525
8,450320.5843729513
167,73424.07004798458
168,73424.0700479856
267,792968.5191087241
268,792968.5191087351
269,0.0
270,0.0
271,1130091.3780654953
272,0.0
273,1660035.7815007982
274,0.0
717,4865730.605874315
730,0.0
779,3975266.7379668416
780,330998.0834363374
781,5425230.954832288
782,0.0
783,4533298.415801264
784,258584.24844840803
883,690234.9943866839
922,690234.9943866733
2,2, 1, 2, 0,24, 0.00,60.00,Monday
7,450320.58437294525
8,450320.5843729513
167,30593.362880465826
168,30593.36288046625
267,647777.100116986
268,647777.1001169949
269,0.0
270,0.0
271,1087284.9348476366
272,0.0
273,1598724.7453472568
274,0.0
717,4993165.3349452745
730,0.0
779,4119930.0028752545
780,311792.07225867285
781,5547183.15871932
782,0.0
783,4672545.039471758
784,242626.6903232832
883,377675.7516455441
922,377675.7516455382
2,3, 1, 3, 0, 1, 0.00,60.00,Tuesday
7,450320.58437294525
8,450320.5843729513
167,12237.34536846968
168,12237.345368469847
267,502585.68112524773
268,502585.6811252547
269,0.0
270,0.0
271,999517.2845363179
272,0.0
273,1473929.5769654466
274,0.0
717,5071868.437944414
730,0.0
779,4209426.008326233
780,232465.1766886478
781,5608073.891676515
782,0.0
783,4744373.701116875
784,170450.4125875132
883,104210.38977022312
922,104210.38977022146
2,3, 1, 3, 0, 2, 0.00,60.00,Tuesday
7,450320.58437294525
8,450320.5843729513
167,12237.34536846968
168,12237.345368469847
267,457911.3983585591
268,457911.3983585654
269,0.0
270,0.0
271,858485.0790212667
272,0.0
273,1275182.6871035323
274,0.0
717,4801658.637221012
730,0.0
779,3996217.9187388383
780,134652.1984028804
781,5245985.599438589
782,0.0
783,4439571.675962504
784,86667.66006173666
883,52105.19488511156
922,52105.19488511073
2,3, 1, 3, 0, 3, 0.00,60.00,Tuesday
7,450320.58437294525
8,450320.5843729513
167,12237.34536846968
168,12237.345368469847
267,435574.25697521475
268,435574.25697522087
269,0.0
270,0.0
271,801886.2642154344
272,0.0
273,1206143.4011712954
274,0.0
717,4640455.126425729
730,0.0
779,3855458.6799988975
780,91796.68155595988
781,5032734.363286864
782,0.0
783,4247053.549293929
784,58053.470289395
883,13026.29872127789
922,13026.298721277682
2,3, 1, 3, 0, 4, 0.00,60.00,Tuesday
7,450320.58437294525
8,450320.5843729513
167,12237.34536846968
168,12237.345368469847
267,424405.68628354266
268,424405.6862835484
269,0.0
270,0.0
271,774528.5508503948
272,0.0
273,1177694.8773386818
274,0.0
717,4760675.652345099
730,0.0
779,3959336.524206817
780,41054.943471564635
781,5200150.326852974
782,0.0
783,4398804.834196698
784,18112.515483003925
883,13026.29872127789
922,13026.298721277682
2,3, 1, 3, 0, 5, 0.00,60.00,Tuesday
7,450320.58437294525
8,450320.5843729513
167,36712.03502399229
168,36712.0350239928
267,424405.68628354266
268,424405.6862835484
269,0.0
270,0.0
271,765655.1187162041
272,0.0
273,1176870.6773408393
274,0.0
717,4891384.8898990285
730,0.0
779,4071394.6929288767
780,7266.3910277519335
781,5355854.191337738
782,0.0
783,4542041.142598604
784,0.0
883,52105.19488511156
922,52105.19488511073
2,3, 1, 3, 0, 6, 0.00,60.00,Tuesday
7,450320.58437294525
8,450320.5843729513
167,79542.7432729278
168,79542.7432729289
267,480248.5397419035
268,480248.53974191006
269,0.0
270,0.0
271,808830.0151061779
272,0.0
273,1248788.3111807103
274,0.0
717,4874606.200569993
730,0.0
779,4042545.9722218234
780,35640.29582785665
781,5343615.4893194735
782,0.0
783,4511373.292329699
784,26668.207403862016
883,351710.065474503
922,351710.06547449756
2,3, 1, 3, 0, 7, 0.00,60.00,Tuesday
7,450320.58437294525
8,450320.5843729513
167,85661.41541645429
168,85661.41541645545
267,603102.8173502974
268,603102.8173503056
269,0.0
270,0.0
271,945043.3822800161
272,0.0
273,1446897.3532104362
274,0.0
717,4627955.345800189
730,0.0
779,3799119.898761631
780,173391.13262087354
781,5078033.2719303155
782,0.0
783,4248873.307462692
784,157390.57866281603
883,1224472.0798001217
922,1224472.0798001022
2,3, 1, 3, 0, 8, 0.00,60.00,Tuesday
7,382772.49671700347
8,382772.49671700865
167,79542.7432729278
168,79542.7432729289
267,725957.0949586912
268,725957.0949587013
269,0.0
270,0.0
271,1108219.5332131658
272,0.0
273,1664941.529762124
274,0.0
717,4635050.206261642
730,0.0
779,3788958.267746966
780,338382.49381506175
781,5110792.094204832
782,0.0
783,4263883.144260181
784,298099.18605151726
883,1302496.655198618
922,1302496.655198598
2,3, 1, 3, 0, 9, 0.00,60.00,Tuesday
7,175625.0279054486
8,175625.027905451
167,11575.46956784257
168,11013.61050719784
267,737125.6656503635
268,737125.6656503736
269,337075.3524332078
270,512480.72858330596
271,1190203.8161033734
272,0.0
273,1760691.1352860776
274,0.0
717,4646403.393336279
730,0.0
779,3787270.175802894
780,422438.96433172235
781,4876029.063122242
782,0.0
783,4015599.436976921
784,358518.6503851007
883,1250524.6772426772
922,1250524.6772426576
2,3, 1, 3, 0,10, 0.00,60.00,Tuesday
7,112580.14609323631
8,112580.14609323782
167,7342.406896656785
168,7342.4068966568875
267,748294.2363420356
268,748294.236342046
269,1505079.2903642354
270,1792992.7768326236
271,1199046.2839821028
272,0.0
273,1754136.605044955
274,0.0
717,3798061.1074726447
730,0.0
779,2939386.881953543
780,438217.5041819016
781,3482953.360661317
782,0.0
783,2622429.027521958
784,358177.2913886395
883,1094209.0925873425
922,1094209.0925873255
2,3, 1, 3, 0,11, 0.00,60.00,Tuesday
7,112580.14609323631
8,112580.14609323782
167,7342.406896656785
168,7342.4068966568875
267,770631.3777253799
268,770631.3777253905
269,3496274.8155824356
270,3768441.650500696
271,1150578.6606524033
272,0.0
273,1673264.6311892513
274,0.0
717,1799035.016890117
730,0.0
779,957068.6320247208
780,405072.03689956374
781,578933.1527421463
782,0.0
783,129692.0173044174
784,714247.9836062324
883,989998.7028171194
922,989998.7028171041
2,3, 1, 3, 0,12, 0.00,60.00,Tuesday
7,112580.14609323631
8,112580.14609323782
167,7342.406896656785
168,7342.4068966568875
267,781799.948417052
268,781799.9484170629
269,1362938.5597984933
270,1504555.310280797
271,1088303.9944870418
272,0.0
273,1580973.5077704154
274,0.0
717,2862019.9055865724
730,0.0
779,2037079.2250569335
780,356450.2827967662
781,2580131.643112953
782,0.0
783,1752942.2257003915
784,272795.4714219072
883,794604.2219979509
922,794604.2219979388
2,3, 1, 3, 0,13, 0.00,60.00,Tuesday
7,112580.14609323631
8,112580.14609323782
167,7342.406896656785
168,7342.4068966568875
267,770631.3777253799
268,770631.3777253905
269,1825549.2770867348
270,2004902.991287255
271,1020620.2442645042
272,0.0
273,1486194.509534702
274,0.0
717,2762811.2747831806
730,0.0
779,1975957.1752804734
780,324746.34791422903
781,2420962.933136249
782,0.0
783,1632120.91278267
784,248486.28670812698
883,690393.832227728
922,690393.8322277174
2,3, 1, 3, 0,14, 0.00,60.00,Tuesday