Program Version,EnergyPlus, Version 9.6.0-4b123cf80f, YMD=2022.02.08 10:10
1,5,Environment Title[],Latitude[deg],Longitude[deg],Time Zone[],Elevation[m]
2,8,Day of Simulation[],Month[],Day of Month[],DST Indicator[1=yes 0=no],Hour[],StartMinute[],EndMinute[],DayType
3,5,Cumulative Day of Simulation[],Month[],Day of Month[],DST Indicator[1=yes 0=no],DayType  ! When Daily Report Variables Requested
4,2,Cumulative Days of Simulation[],Month[]  ! When Monthly Report Variables Requested
5,1,Cumulative Days of Simulation[] ! When Run Period Report Variables Requested
6,1,Calendar Year of Simulation[] ! When Annual Report Variables Requested
7,1,ZONE1_FB552714,Zone People Total Heating Energy [J] !Hourly
129,1,ZONE1_FB552714,Zone Lights Electricity Energy [J] !Hourly
203,1,ZONE1_FB552714,Zone Electric Equipment Electricity Energy [J] !Hourly
204,1,ZONE1_FB552714,Zone Windows Total Transmitted Solar Radiation Energy [J] !Hourly
205,1,ZONE1_FB552714,Zone Infiltration Total Heat Loss Energy [J] !Hourly
206,1,ZONE1_FB552714,Zone Infiltration Total Heat Gain Energy [J] !Hourly
586,1,ZONE1_FB552714 IDEAL LOADS AIR SYSTEM,Zone Ideal Loads Supply Air Total Heating Energy [J] !Hourly
599,1,ZONE1_FB552714 IDEAL LOADS AIR SYSTEM,Zone Ideal Loads Supply Air Total Cooling Energy [J] !Hourly
648,1,ZONE1_FB552714 IDEAL LOADS AIR SYSTEM,Zone Ideal Loads Zone Total Heating Energy [J] !Hourly
649,1,ZONE1_FB552714 IDEAL LOADS AIR SYSTEM,Zone Ideal Loads Zone Total Cooling Energy [J] !Hourly
748,1,2019::MIDRISEAPARTMENT::APARTMENT_SHW..ZONE1_FB552714,Water Use Equipment Heating Energy [J] !Hourly
End of Data Dictionary
1,RUN PERIOD 1,  47.47,-122.32,  -8.00, 122.00
2,1, 1, 1, 0, 1, 0.00,60.00,Sunday
7,900641.1687459012
129,24474.690736939658
203,1005171.3622505078
204,0.0
205,9984726.815933097
206,0.0
586,14457891.169380609
599,0.0
648,12522067.481254306
649,233158.7281073649
748,208323.76143306264
2,1, 1, 1, 0, 2, 0.00,60.00,Sunday
7,900641.1687459012
129,24474.690736939658
203,915822.7967171294
204,0.0
205,9622135.944947198
206,0.0
586,14938255.595099347
599,0.0
648,12945076.508217303
649,82481.80523349019
748,104161.88071653132
2,1, 1, 1, 0, 3, 0.00,60.00,Sunday
7,900641.1687459012
129,24474.690736939658
203,871148.51395044
204,0.0
205,9425338.792279918
206,0.0
586,14976771.852566522
599,0.0
648,12981867.153939065
649,27491.890363223683
748,26040.47017913283
2,1, 1, 1, 0, 4, 0.00,60.00,Sunday
7,900641.1687459012
129,24474.690736939658
203,848811.3725670954
204,0.0
205,9144265.920988547
206,0.0
586,14695717.94029709
599,0.0
648,12742278.724078204
649,8338.498785594857
748,26040.47017913283
2,1, 1, 1, 0, 5, 0.00,60.00,Sunday
7,900641.1687459012
129,73424.07004798547
203,848811.3725670954
204,0.0
205,8805568.991461739
206,0.0
586,14160283.590015214
599,0.0
648,12271752.096243761
649,520.714084093288
748,104161.88071653132
2,1, 1, 1, 0, 6, 0.00,60.00,Sunday
7,900641.1687459012
129,159085.4865458575
203,960497.0794838185
204,0.0
205,8226516.861023778
206,0.0
586,12907338.456161462
599,0.0
648,11161040.0043875
649,16372.273295865125
748,703092.6948365866
2,1, 1, 1, 0, 7, 0.00,60.00,Sunday
7,900641.1687459012
129,171322.8308329106
203,1206205.6347006094
204,0.0
205,8633218.22752066
206,0.0
586,12319957.93923872
599,0.0
648,10581389.040366087
649,87618.7490042711
748,2447804.196838487
2,1, 1, 1, 0, 8, 0.00,60.00,Sunday
7,765544.993434016
129,159085.4865458575
203,1451914.1899174002
204,0.0
205,9568220.006756663
206,0.0
586,12570347.616006091
599,0.0
648,10779911.472471308
649,261413.76966258412
748,2603780.7080776473
2,1, 1, 1, 0, 9, 0.00,60.00,Sunday
7,351250.05581090145
129,69190.77647021307
203,1474251.331300745
204,52739.305092072995
205,9446699.481397195
206,0.0
586,12309338.789251216
599,0.0
648,10597734.150039466
649,341818.81099636713
748,2499885.137196752
2,1, 1, 1, 0,10, 0.00,60.00,Sunday
7,225160.2921864753
129,39012.73989263246
203,1496588.4726840893
204,173638.5507598574
205,8966289.18360167
206,0.0
586,11752530.523889272
599,0.0
648,10094718.446229545
649,291257.17563540145
748,2187399.4950471576
2,1, 1, 1, 0,11, 0.00,60.00,Sunday
7,225160.2921864753
129,33118.21983366867
203,1541262.7554507784
204,259953.46716166678
205,8544863.724106412
206,0.0
586,10948594.675972309
599,0.0
648,9367477.957087945
649,281241.34269583237
748,1979075.7336140955
2,1, 1, 1, 0,12, 0.00,60.00,Sunday
7,225160.2921864753
129,30826.018250926354
203,1563599.8968341232
204,197154.1917057073
205,7964254.216667967
206,0.0
586,10412178.32803164
599,0.0
648,8920566.00378864
649,253443.5508970876
748,1588468.680927103
2,1, 1, 1, 0,13, 0.00,60.00,Sunday
7,225160.2921864753
129,30472.15887560197
203,1541262.7554507784
204,234198.68959485396
205,8646767.759662215
206,0.0
586,11869291.308442367
599,0.0
648,10170165.252690196
649,171323.41401650402
748,1380144.9194940403
2,1, 1, 1, 0,14, 0.00,60.00,Sunday
7,225160.2921864753
129,30236.86665022493
203,1474251.331300745
204,310723.52393518056
205,9361630.352322394
206,0.0
586,12796830.830642574
599,0.0
648,10976367.134090444
649,209775.83649352583
748,1223902.0984192435
2,1, 1, 1, 0,15, 0.00,60.00,Sunday
7,225160.2921864753
129,35945.01836193496
203,1451914.1899174002
204,236525.35298887533
205,9083047.354068466
206,0.0
586,12759290.543245554
599,0.0
648,10968674.819772279
649,179723.15898034413
748,1067659.277344446
2,1, 1, 1, 0,16, 0.00,60.00,Sunday
7,225160.2921864753
129,75216.7214548506
203,1518925.614067434
204,111072.52488703448
205,9214051.149455115
206,0.0
586,13190659.84737885
599,0.0
648,11357715.097797062
649,152906.59435470344
748,1223902.0984192435
2,1, 1, 1, 0,17, 0.00,60.00,Sunday
7,270192.3506237703
129,169441.04828450357
203,1786971.3106675693
204,12328.733887169707
205,9323093.090935307
206,0.0
586,13314193.787752587
599,0.0
648,11450524.677511329
649,132253.74664115027
748,1432225.859852306
2,1, 1, 1, 0,18, 0.00,60.00,Sunday
7,468333.4077478686
129,244746.90088089608
203,2233714.138334462
204,0.0
205,9558093.961429367
206,0.0
586,12747118.320582692
599,0.0
648,10884036.737042509
649,176791.07113136695
748,1900954.3230766973
2,1, 1, 1, 0,19, 0.00,60.00,Sunday
7,783557.816808934
129,330408.31737876806
203,2233714.138334462
204,0.0
205,9977957.879070288
206,0.0
586,12414790.878330316
599,0.0
648,10554238.994954273
649,276958.00547666196
748,2239480.4354054243
2,1, 1, 1, 0,20, 0.00,60.00,Sunday
7,783557.816808934
129,391595.04313970055
203,2077354.1486510497
204,0.0
205,10058043.76983457
206,0.0
586,12537526.090757702
599,0.0
648,10677787.142193474
649,299266.89982971357
748,2135318.554688892
2,1, 1, 1, 0,21, 0.00,60.00,Sunday
7,783557.816808934
129,391595.04313970055
203,1988005.5831176708
204,0.0
205,10123073.374523185
206,0.0
586,12945776.600931609
599,0.0
648,11050502.834032401
649,271440.1054863519
748,1953035.2634349628
2,1, 1, 1, 0,22, 0.00,60.00,Sunday
7,900641.1687459012
129,269221.59161783574
203,1898657.0175842922
204,0.0
205,9990334.125369363
206,0.0
586,13063703.506292917
599,0.0
648,11178110.793398373
649,254988.7922127993
748,1588468.680927103
2,1, 1, 1, 0,23, 0.00,60.00,Sunday
7,900641.1687459012
129,146848.14009597094
203,1585937.0382174677
204,0.0
205,9740399.47970684
206,0.0
586,13240505.456411418
599,0.0
648,11379299.64834841
649,223710.6955635324
748,1380144.9194940403
2,1, 1, 1, 0,24, 0.00,60.00,Sunday
7,900641.1687459012
129,61186.72576093239
203,1295554.2002339878
204,0.0
205,9535668.38757371
206,0.0
586,13621267.405290388
599,0.0
648,11759221.038488189
649,180994.86930860337
748,755173.6351948522
2,2, 1, 2, 0, 1, 0.00,60.00,Monday
7,900641.1687459012
129,24474.690736939658
203,1005171.3622505078
204,0.0
205,9099343.23508264
206,0.0
586,13666983.54379525
599,0.0
648,11846143.952520823
649,134557.07619439182
748,208372.8284940927
2,2, 1, 2, 0, 2, 0.00,60.00,Monday
7,900641.1687459012
129,24474.690736939658
203,915822.7967171294
204,0.0
205,8864206.901918538
206,0.0
586,13839258.110401064
599,0.0
648,12004833.048213348
649,57899.25409974094
748,104186.41424704636
2,2, 1, 2, 0, 3, 0.00,60.00,Monday
7,900641.1687459012
129,24474.690736939658
203,871148.51395044
204,0.0
205,8937404.384085918
206,0.0
586,14122260.671955317
599,0.0
648,12257323.786710078
649,37208.157054285584
748,26046.60356176159
2,2, 1, 2, 0, 4, 0.00,60.00,Monday
7,900641.1687459012
129,24474.690736939658
203,848811.3725670954
204,0.0
205,8704968.356965553
206,0.0
586,13848220.094316741
599,0.0
648,12024940.928000586
649,31008.70104595897
748,26046.60356176159
2,2, 1, 2, 0, 5, 0.00,60.00,Monday
7,900641.1687459012
129,73424.07004798547
203,848811.3725670954
204,0.0
205,8798024.419465352
206,0.0
586,13852308.87153122
599,0.0
648,12017251.396656776
649,39444.18968791579
748,104186.41424704636
2,2, 1, 2, 0, 6, 0.00,60.00,Monday
7,900641.1687459012
129,159085.4865458575
203,960497.0794838185
204,0.0
205,9093167.529646482
206,0.0
586,13849275.824732129
599,0.0
648,11984879.943451688
649,64777.16228808368
748,703258.296167563
2,2, 1, 2, 0, 7, 0.00,60.00,Monday
7,900641.1687459012
129,171322.8308329106
203,1206205.6347006094
204,0.0
205,9625568.019241838
206,0.0
586,13374440.591100175
599,0.0
648,11512001.842108222
649,161274.90934350734
748,2448380.73480559
2,2, 1, 2, 0, 8, 0.00,60.00,Monday
7,765544.993434016
129,159085.4865458575
203,1451914.1899174002
204,0.0
205,9913483.448627427
206,0.0
586,12868629.923538947
599,0.0
648,11050515.876503022
649,286556.57438933174
748,2604393.9836158445
2,2, 1, 2, 0, 9, 0.00,60.00,Monday
7,351250.05581090145
129,68444.24440700568
203,1474251.331300745
204,61922.74113882016
205,9835653.949821286
206,0.0
586,12885617.952509975
599,0.0
648,11097898.090411544
649,313376.9335037147
748,2500473.9419291127
2,2, 1, 2, 0,10, 0.00,60.00,Monday
7,225160.2921864753
129,37913.12205319014
203,1496588.4726840893
204,189581.85796399062
205,9732462.497703036
206,0.0
586,12766554.887781447
599,0.0
648,10978472.977896146
649,295525.9195662065
748,2187914.6991879735
2,2, 1, 2, 0,11, 0.00,60.00,Monday
7,225160.2921864753
129,29275.45613818225
203,1541262.7554507784
204,309491.2823952796
205,9230581.264572237
206,0.0
586,11715343.11332372
599,0.0
648,10040028.06556934
649,316681.7339924944
748,1979541.8706938808
2,2, 1, 2, 0,12, 0.00,60.00,Monday
7,225160.2921864753
129,21997.168420844224
203,1563599.8968341232
204,391690.12016577384
205,8564165.322660897
206,0.0
586,10668599.326513907
599,0.0
648,9115909.875885319
649,313014.0387900899
748,1588842.8172674568
2,2, 1, 2, 0,13, 0.00,60.00,Monday
7,225160.2921864753
129,31931.04855778676
203,1541262.7554507784
204,263242.72839291993
205,8165787.303884732
206,0.0
586,11199730.746919455
599,0.0
648,9596266.577627618
649,147798.30889419327
748,1380469.9887733646
2,2, 1, 2, 0,14, 0.00,60.00,Monday
7,225160.2921864753
129,33847.768980033215
203,1474251.331300745
204,247867.25193444922
205,8292023.122212645
206,0.0
586,11493831.799060749
599,0.0
648,9870361.38725494
649,160049.81484868113
748,1224190.367402795
2,2, 1, 2, 0,15, 0.00,60.00,Monday
7,225160.2921864753
129,34760.97242299361
203,1451914.1899174002
204,257558.47627729416
205,8178131.61709313
206,0.0
586,11597555.397641463
599,0.0
648,9963326.653303258
649,128605.81414613544
748,1067910.7460322252
2,2, 1, 2, 0,16, 0.00,60.00,Monday
7,225160.2921864753
129,72467.24728748848
203,1518925.614067434
204,150765.90977770265
205,8384609.810105203
206,0.0
586,11890724.005492467
599,0.0
648,10232083.039353168
649,151198.48487063064
748,1224190.367402795
2,2, 1, 2, 0,17, 0.00,60.00,Monday
7,270192.3506237703
129,169024.28027763983
203,1786971.3106675693
204,15274.671927257623
205,8085134.010670302
206,0.0
586,11269891.330344442
599,0.0
648,9688481.10258326
649,167394.0814494127
748,1432563.1958968877
2,2, 1, 2, 0,18, 0.00,60.00,Monday
7,468333.4077478686
129,244746.90088089608
203,2233714.138334462
204,0.0
205,7820802.1522864215
206,0.0
586,10028592.37199746
599,0.0
648,8537556.054921893
649,200856.69121998452
748,1901402.0600085964
2,2, 1, 2, 0,19, 0.00,60.00,Monday
7,783557.816808934
129,330408.31737876806
203,2233714.138334462
204,0.0
205,8079868.824429385
206,0.0
586,9718796.679352429
599,0.0
648,8218706.234588063
649,247351.7241883822
748,2240007.906311497
2,2, 1, 2, 0,20, 0.00,60.00,Monday
7,783557.816808934
129,391595.04313970055
203,2077354.1486510497
204,0.0
205,8440141.07232746
206,0.0
586,10271893.606213836
599,0.0
648,8705002.612191617
649,260493.79845716612
748,2135821.4920644504
2,2, 1, 2, 0,21, 0.00,60.00,Monday
7,783557.816808934
129,391595.04313970055
203,1988005.5831176708
204,0.0
205,8845124.033198727
206,0.0
586,11132544.69478445
599,0.0
648,9457962.826324662
649,236479.08561727847
748,1953495.26713212
2,2, 1, 2, 0,22, 0.00,60.00,Monday
7,900641.1687459012
129,269221.59161783574
203,1898657.0175842922
204,0.0
205,9215869.402804721
206,0.0
586,11917701.479786742
599,0.0
648,10153029.661850488
649,232797.49707498075
748,1588842.8172674568
2,2, 1, 2, 0,23, 0.00,60.00,Monday
7,900641.1687459012
129,146848.14009597094
203,1585937.0382174677
204,0.0
205,9229784.855700951
206,0.0
586,12477894.752693422
599,0.0
648,10687912.564132312
649,215560.17684528706
748,1380469.9887733646
2,2, 1, 2, 0,24, 0.00,60.00,Monday
7,900641.1687459012
129,61186.72576093239
203,1295554.2002339878
204,0.0
205,8941458.372837119
206,0.0
586,12625369.545354748
599,0.0
648,10870398.62321683
649,204473.1058763963
748,755351.5032910861
2,3, 1, 3, 0, 1, 0.00,60.00,Tuesday
7,900641.1687459012
129,24474.690736939658
203,1005171.3622505078
204,0.0
205,8386483.831403853
206,0.0
586,12765050.98932209
599,0.0
648,11032861.181390557
649,104754.85804332313
748,208420.7795404456
2,3, 1, 3, 0, 2, 0.00,60.00,Tuesday
7,900641.1687459012
129,24474.690736939658
203,915822.7967171294
204,0.0
205,7511350.633230049
206,0.0
586,12012442.927839201
599,0.0
648,10396568.997111578
649,23146.074663421678
748,104210.38977022283
2,3, 1, 3, 0, 3, 0.00,60.00,Tuesday
7,900641.1687459012
129,24474.690736939658
203,871148.51395044
204,0.0
205,7321558.975233425
206,0.0
586,11698329.23017957
599,0.0
648,10125210.76728354
649,29484.992856599274
748,26052.5974425557
2,3, 1, 3, 0, 4, 0.00,60.00,Tuesday
7,900641.1687459012
129,24474.690736939658
203,848811.3725670954
204,0.0
205,7289840.736298092
206,0.0
586,11967652.121622276
599,0.0
648,10384196.072529178
649,2416.6933256688026
748,26052.5974425557
2,3, 1, 3, 0, 5, 0.00,60.00,Tuesday
7,900641.1687459012
129,73424.07004798547
203,848811.3725670954
204,0.0
205,7441778.803895691
206,0.0
586,12206766.136997052
599,0.0
648,10594580.075586757
649,0.0
748,104210.38977022284
2,3, 1, 3, 0, 6, 0.00,60.00,Tuesday
7,900641.1687459012
129,159085.4865458575
203,960497.0794838185
204,0.0
205,7860627.835609444
206,0.0
586,12167091.704400627
599,0.0
648,10503065.39680156
649,39224.73706208002
748,703420.1309490041
2,3, 1, 3, 0, 7, 0.00,60.00,Tuesday
7,900641.1687459012
129,171322.8308329106
203,1206205.6347006094
204,0.0
205,8698268.394616645
206,0.0
586,11680357.041749906
599,0.0
648,10020190.146548552
649,223715.22140744393
748,2448944.159600236
2,3, 1, 3, 0, 8, 0.00,60.00,Tuesday
7,765544.993434016
129,159085.4865458575
203,1451914.1899174002
204,0.0
205,9353664.167211952
206,0.0
586,11810055.433879174
599,0.0
648,10111039.838184793
649,339922.42283764953
748,2604993.31039723
2,3, 1, 3, 0, 9, 0.00,60.00,Tuesday
7,351250.05581090145
129,65309.08889303752
203,1474251.331300745
204,95231.24773153698
205,9549627.590825053
206,0.0
586,12259297.674239028
599,0.0
648,10531145.482557483
649,357453.9324029441
748,2501049.354485348
2,3, 1, 3, 0,10, 0.00,60.00,Tuesday
7,225160.2921864753
129,32767.887075496168
203,1496588.4726840893
204,233006.481590223
205,9379158.906976739
206,0.0
586,12150780.620832063
599,0.0
648,10422107.273145014
649,318053.2276949592
748,2188418.185174679
2,3, 1, 3, 0,11, 0.00,60.00,Tuesday
7,225160.2921864753
129,16392.19302544384
203,1541262.7554507784
204,338145.1473522254
205,8973875.137385868
206,0.0
586,11640523.593400557
599,0.0
648,9952642.63420013
649,266798.69459649775
748,1979997.4056342333
2,3, 1, 3, 0,12, 0.00,60.00,Tuesday
7,225160.2921864753
129,16825.46197138644
203,1563599.8968341232
204,303540.27804646053
205,8584535.630484696
206,0.0
586,11507819.693582296
599,0.0
648,9848273.421262369
649,208017.00549966935
748,1589208.4439958981
2,3, 1, 3, 0,13, 0.00,60.00,Tuesday
7,225160.2921864753
129,15685.693711802702
203,1541262.7554507784
204,447238.497416731
205,8185974.629760431
206,0.0
586,10785444.095188027
599,0.0
648,9202772.727043543
649,207557.5065285029
748,1380787.6644554525
2,3, 1, 3, 0,14, 0.00,60.00,Tuesday
7,225160.2921864753
129,25126.981466124445
203,1474251.331300745
204,427237.59248412005
205,7815280.209582167
206,0.0
586,10409518.491486087
599,0.0
648,8881508.880847966
649,185421.01465999248
748,1224472.079800118
2,3, 1, 3, 0,15, 0.00,60.00,Tuesday
7,225160.2921864753
129,39662.69565799007
203,1451914.1899174002
204,174903.77710537866
205,7899256.982348637
206,0.0
586,11122387.768642394
599,0.0
648,9551924.893812474
649,156334.04311429284
748,1068156.495144784
2,3, 1, 3, 0,16, 0.00,60.00,Tuesday
7,225160.2921864753
129,77753.77793406362
203,1518925.614067434
204,91300.16075338023
205,8092253.071642553
206,0.0
586,11717309.15118122
599,0.0
648,10080875.38135003
649,117474.21162585742
748,1224472.079800118
2,3, 1, 3, 0,17, 0.00,60.00,Tuesday
7,270192.3506237703
129,169696.32156280155
203,1786971.3106675693
204,11099.940508052736
205,8438954.80359268
206,0.0
586,12045457.717274604
599,0.0
648,10341454.026406115
649,114725.4260768668
748,1432892.859340564
2,3, 1, 3, 0,18, 0.00,60.00,Tuesday
7,468333.4077478686
129,244746.90088089608
203,2233714.138334462
204,0.0
205,9069054.750208242
206,0.0
586,11713026.753193678
599,0.0
648,9982085.091053031
649,234764.85705331177
748,1901839.6133065666
2,3, 1, 3, 0,19, 0.00,60.00,Tuesday
7,783557.816808934
129,330408.31737876806
203,2233714.138334462
204,0.0
205,9453787.635039445
206,0.0
586,11617859.307177685
599,0.0
648,9853580.789520456
649,281631.5941321065
748,2240523.3800597913
2,3, 1, 3, 0,20, 0.00,60.00,Tuesday
7,783557.816808934
129,391595.04313970055
203,2077354.1486510497
204,0.0
205,9529926.34895549
206,0.0
586,11659244.868546901
599,0.0
648,9905976.324206937
649,314083.56089616654
748,2136312.990289568
2,3, 1, 3, 0,21, 0.00,60.00,Tuesday
7,783557.816808934
129,391595.04313970055
203,1988005.5831176708
204,0.0
205,9400507.279581485
206,0.0
586,11602547.959694277
599,0.0
648,9874908.638288623
649,317580.3798991366
748,1953944.8081916778
2,3, 1, 3, 0,22, 0.00,60.00,Tuesday
7,900641.1687459012
129,269221.59161783574
203,1898657.0175842922
204,0.0
205,9294105.021671876
206,0.0
586,11744305.658502717
599,0.0
648,10016859.980591888
649,296108.1894753315
748,1589208.4439958981
2,3, 1, 3, 0,23, 0.00,60.00,Tuesday
7,900641.1687459012
129,146848.14009597094
203,1585937.0382174677
204,0.0
205,9064384.985761855
206,0.0
586,12099279.844601829
599,0.0
648,10370925.507250026
649,238255.801684972
748,1380787.6644554525
2,3, 1, 3, 0,24, 0.00,60.00,Tuesday
7,900641.1687459012
129,61186.72576093239
203,1295554.2002339878
204,0.0
205,8799985.722559357
206,0.0
586,12743243.667017287
599,0.0
648,10977125.370186266
649,132244.3890810706
748,755525.3258341153
2,4, 1, 4, 0, 1, 0.00,60.00,Wednesday
7,900641.1687459012
129,24474.690736939658
203,1005171.3622505078
204,0.0
205,8813588.662945088
206,0.0
586,13591006.709933415
599,0.0
648,11755710.627517328
649,59762.69510920528
748,208467.60037187327
2,4, 1, 4, 0, 2, 0.00,60.00,Wednesday
7,900641.1687459012
129,24474.690736939658
203,915822.7967171294
204,0.0
205,8801446.84950261
206,0.0
586,13919603.281871326
599,0.0
648,12052975.814191174
649,21233.377005984585
748,104233.80018593663
2,4, 1, 4, 0, 3, 0.00,60.00,Wednesday
7,900641.1687459012
129,24474.690736939658
203,871148.51395044
204,0.0
205,8904638.135075886
206,0.0
586,13979499.49453344
599,0.0
648,12113602.188683227
649,52157.732828025924
748,26058.45004648416
2,4, 1, 4, 0, 4, 0.00,60.00,Wednesday
7,900641.1687459012
129,24474.690736939658
203,848811.3725670954
204,0.0
205,9072734.799941892
206,0.0
586,14276252.616445059
599,0.0
648,12375742.180461133
649,51552.546719562
748,26058.45004648416
2,4, 1, 4, 0, 5, 0.00,60.00,Wednesday
7,900641.1687459012
129,73424.07004798547
203,848811.3725670954
204,0.0
205,9257864.47554135
206,0.0
586,14473745.844784312
599,0.0
648,12548974.384638792
649,65126.41442264931
748,104233.80018593663
2,4, 1, 4, 0, 6, 0.00,60.00,Wednesday
7,900641.1687459012
129,159085.4865458575
203,960497.0794838185
204,0.0
205,9670682.526974592
206,0.0
586,14598758.101919334
599,0.0
648,12633678.57213993
649,106188.29671463372
748,703578.1512550722
2,4, 1, 4, 0, 7, 0.00,60.00,Wednesday
7,900641.1687459012
129,171322.8308329106
203,1206205.6347006094
204,0.0
205,9975161.478863982
206,0.0
586,13800367.212582638
599,0.0
648,11884818.3748884
649,205021.00069340452
748,2449494.3043695106
2,4, 1, 4, 0, 8, 0.00,60.00,Wednesday
7,765544.993434016
129,159085.4865458575
203,1451914.1899174002
204,0.0
205,10299830.987117704
206,0.0
586,13447175.935148384
599,0.0
648,11553984.852548571
649,310905.852554421
748,2605578.5109368553
2,4, 1, 4, 0, 9, 0.00,60.00,Wednesday
7,351250.05581090145
129,69795.70627550724
203,1474251.331300745
204,45801.61724724321
205,10360106.286220098
206,0.0
586,13858262.880401392
599,0.0
648,11939562.117815107
649,298278.7341016355
748,2501611.2044624784
2,4, 1, 4, 0,10, 0.00,60.00,Wednesday
7,225160.2921864753
129,41856.84523508596
203,1496588.4726840893
204,127948.35627181063
205,10287629.999916544
206,0.0
586,13802026.302986808
599,0.0
648,11882818.259869302
649,284974.2930258557
748,2188909.8039046684
2,4, 1, 4, 0,11, 0.00,60.00,Wednesday
7,225160.2921864753
129,31449.793727107564
203,1541262.7554507784
204,282143.27719530254
205,9787213.321647847
206,0.0
586,12924225.866902493
599,0.0
648,11081136.029061962
649,258401.36308430845
748,1980442.2035327961
2,4, 1, 4, 0,12, 0.00,60.00,Wednesday
7,225160.2921864753
129,19979.594931246524
203,1563599.8968341232
204,361799.1738844783
205,9287350.280508827
206,0.0
586,12334417.590207638
599,0.0
648,10544675.998500308
649,206262.5759170117
748,1589565.4528355333
2,4, 1, 4, 0,13, 0.00,60.00,Wednesday
7,225160.2921864753
129,16756.578995812182
203,1541262.7554507784
204,382125.2474540798
205,8694760.302212965
206,0.0
586,11772992.081452984
599,0.0
648,10058265.363574833
649,152916.70461702396
748,1381097.85246366
2,4, 1, 4, 0,14, 0.00,60.00,Wednesday
7,225160.2921864753
129,28408.03993381833
203,1474251.331300745
204,371169.43864256825
205,8499282.381267175
206,0.0
586,11479831.544928582
599,0.0
648,9820529.183996178
649,178113.1531078703
748,1224747.1521847553
2,4, 1, 4, 0,15, 0.00,60.00,Wednesday
7,225160.2921864753
129,30697.57321804716
203,1451914.1899174002
204,430288.99978853145
205,8514968.951603414
206,0.0
586,11495400.280058911
599,0.0
648,9836942.134021606
649,189358.68952792324
748,1068396.4519058503
2,4, 1, 4, 0,16, 0.00,60.00,Wednesday
7,225160.2921864753
129,70851.95385539968
203,1518925.614067434
204,189545.1377638888
205,8335537.754622458
206,0.0
586,11819153.429234834
599,0.0
648,10159489.523225155
649,134499.15193524447
748,1224747.1521847553
2,4, 1, 4, 0,17, 0.00,60.00,Wednesday
7,270192.3506237703
129,168724.46682508645
203,1786971.3106675693
204,18288.489604444076
205,8719410.872771533
206,0.0
586,12156343.6917125
599,0.0
648,10455775.230450895
649,174515.9657173389
748,1433214.7525566288
2,4, 1, 4, 0,18, 0.00,60.00,Wednesday
7,468333.4077478686
129,244746.90088089608
203,2233714.138334462
204,0.0
205,9296367.7582017
206,0.0
586,12112808.116363516
599,0.0
648,10349234.89365957
649,230780.07480508438
748,1902266.8533933428
2,4, 1, 4, 0,19, 0.00,60.00,Wednesday
7,783557.816808934
129,330408.31737876806
203,2233714.138334462
204,0.0
205,10204393.92590686
206,0.0
586,12846484.606908735
599,0.0
648,10940599.821483966
649,269528.7790684154
748,2241026.7039976376
2,4, 1, 4, 0,20, 0.00,60.00,Wednesday
7,783557.816808934
129,391595.04313970055
203,2077354.1486510497
204,0.0
205,10991029.200837335
206,0.0
586,13954802.241298214
599,0.0
648,11923856.018326951
649,313078.36549265176
748,2136792.9038117006
2,4, 1, 4, 0,21, 0.00,60.00,Wednesday
7,783557.816808934
129,391595.04313970055
203,1988005.5831176708
204,0.0
205,10939334.397557037
206,0.0
586,14335724.120488433
599,0.0
648,12273730.874810815
649,262240.5594297015
748,1954383.7534863113
2,4, 1, 4, 0,22, 0.00,60.00,Wednesday
7,900641.1687459012
129,269221.59161783574
203,1898657.0175842922
204,0.0
205,10511229.096955838
206,0.0
586,14184775.350558855
599,0.0
648,12162751.421214104
649,208974.5484103214
748,1589565.4528355333
2,4, 1, 4, 0,23, 0.00,60.00,Wednesday
7,900641.1687459012
129,146848.14009597094
203,1585937.0382174677
204,0.0
205,10966419.594046796
206,0.0
586,14874793.5016468
599,0.0
648,12808298.850205189
649,276047.0075262637
748,1381097.85246366
2,4, 1, 4, 0,24, 0.00,60.00,Wednesday
7,900641.1687459012
129,61186.72576093239
203,1295554.2002339878
204,0.0
205,11274862.640514046
206,0.0
586,15989231.92950315
599,0.0
648,13826932.856799047
649,245823.8696995293
748,755695.0513480403
2,5, 1, 5, 0, 1, 0.00,60.00,Thursday
7,900641.1687459012
129,24474.690736939658
203,1005171.3622505078
204,0.0
205,11707900.659594135
206,0.0
586,17449470.782300435
599,0.0
648,15145775.051363124
649,182632.54739373387
748,208513.27712282978
2,5, 1, 5, 0, 2, 0.00,60.00,Thursday
7,900641.1687459012
129,24474.690736939658
203,915822.7967171294
204,0.0
205,11295275.703273933
206,0.0
586,17674386.697923113
599,0.0
648,15365602.670634247
649,72693.56051254526
748,104256.63856141489
2,5, 1, 5, 0, 3, 0.00,60.00,Thursday
7,900641.1687459012
129,24474.690736939658
203,871148.51395044
204,0.0
205,11094040.760167344
206,0.0
586,17621541.236462034
599,0.0
648,15324599.238673013
649,36244.06533144611
748,26064.159640353722
2,5, 1, 5, 0, 4, 0.00,60.00,Thursday
7,900641.1687459012
129,24474.690736939658
203,848811.3725670954
204,0.0
205,12274300.171981592
206,0.0
586,19016740.92266105
599,0.0
648,16539470.264966317
649,101783.3247524537
748,26064.159640353722
2,5, 1, 5, 0, 5, 0.00,60.00,Thursday
7,900641.1687459012
129,73424.07004798547
203,848811.3725670954
204,0.0
205,12674756.395558845
206,0.0
586,19855575.792177584
599,0.0
648,17268592.666841924
649,58146.3819755314
748,104256.63856141489
2,5, 1, 5, 0, 6, 0.00,60.00,Thursday
7,900641.1687459012
129,159085.4865458575
203,960497.0794838185
204,0.0
205,13298659.208166815
206,0.0
586,20183640.716491055
599,0.0
648,17521647.39331258
649,100595.65302328301
748,703732.3102895508
2,5, 1, 5, 0, 7, 0.00,60.00,Thursday
7,900641.1687459012
129,171322.8308329106
203,1206205.6347006094
204,0.0
205,13197191.875184808
206,0.0
586,19187236.009701192
599,0.0
648,16588378.221936777
649,114775.18022182248
748,2450031.00619325
2,5, 1, 5, 0, 8, 0.00,60.00,Thursday
7,765544.993434016
129,159085.4865458575
203,1451914.1899174002
204,0.0
205,13311545.304366168
206,0.0
586,18306701.350980062
599,0.0
648,15794034.382750915
649,246880.6571595296
748,2606149.4119331227
2,5, 1, 5, 0, 9, 0.00,60.00,Thursday
7,351250.05581090145
129,61619.343559508794
203,1474251.331300745
204,71668.48935017266
205,14096967.679404719
206,0.0
586,19215726.043055255
599,0.0
648,16622587.678080834
649,348591.10936127434
748,2502159.3254739577
2,5, 1, 5, 0,10, 0.00,60.00,Thursday
7,225160.2921864753
129,27125.588643954197
203,1496588.4726840893
204,168062.61509640684
205,12615677.484478725
206,0.0
586,17950851.652799603
599,0.0
648,15530292.707561009
649,207467.67280349997
748,2189389.409789712
2,5, 1, 5, 0,11, 0.00,60.00,Thursday
7,225160.2921864753
129,25924.793064968173
203,1541262.7554507784
204,318622.04474655044
205,11922447.883497553
206,0.0
586,16518464.44353975
599,0.0
648,14223479.564095564
649,197984.64964807453
748,1980876.132666883
2,5, 1, 5, 0,12, 0.00,60.00,Thursday
7,225160.2921864753
129,15427.257731489635
203,1563599.8968341232
204,399425.76122709503
205,11791230.386232626
206,0.0
586,16123069.98538826
599,0.0
648,13839462.291163243
649,192814.82171046926
748,1589913.738061577
2,5, 1, 5, 0,13, 0.00,60.00,Thursday
7,225160.2921864753
129,14951.98026619687
203,1541262.7554507784
204,452815.9721376161
205,11383826.739086187
206,0.0
586,15532810.760110557
599,0.0
648,13313335.585111037
649,178589.9445267422
748,1381400.4609387473
2,5, 1, 5, 0,14, 0.00,60.00,Thursday
7,225160.2921864753
129,14684.813793313746
203,1474251.331300745
204,1181131.5675314267
205,10493649.469312686
206,0.0
586,13406543.099375624
599,0.0
648,11329211.447299454
649,139515.53370754953
748,1225015.503096625
2,5, 1, 5, 0,15, 0.00,60.00,Thursday
7,225160.2921864753
129,14684.813793313746
203,1451914.1899174002
204,2070993.093894755
205,9411048.764326513
206,0.0
586,11011672.184572631
599,0.0
648,9136766.219092099
649,125450.35859994387
748,1068630.5452545024
2,5, 1, 5, 0,16, 0.00,60.00,Thursday
7,225160.2921864753
129,44342.04472008298
203,1518925.614067434
204,1274936.2716980632
205,9338364.20214401
206,0.0
586,11642336.950883321
599,0.0
648,9811324.992733758
649,161369.9448053631
748,1225015.503096625
2,5, 1, 5, 0,17, 0.00,60.00,Thursday
7,270192.3506237703
129,163954.0874091609
203,1786971.3106675693
204,83494.27811573789
205,10419653.626403878
206,0.0
586,14455301.904938387
599,0.0
648,12442602.290200267
649,199030.64762300916
748,1433528.780219455
2,5, 1, 5, 0,18, 0.00,60.00,Thursday
7,468333.4077478686
129,244746.90088089608
203,2233714.138334462
204,0.0
205,11280961.765801823
206,0.0
586,15315082.561529651
599,0.0
648,13151644.605812412
649,209414.1252026591
748,1902683.653745822
2,5, 1, 5, 0,19, 0.00,60.00,Thursday
7,783557.816808934
129,330408.31737876806
203,2233714.138334462
204,0.0
205,12123355.58123961
206,0.0
586,15813318.134819068
599,0.0
648,13545191.953861702
649,273413.45240150194
748,2241517.72907042
2,5, 1, 5, 0,20, 0.00,60.00,Thursday
7,783557.816808934
129,391595.04313970055
203,2077354.1486510497
204,0.0
205,12543665.748552091
206,0.0
586,16354765.831665292
599,0.0
648,14033371.014683127
649,309982.59275986505
748,2137261.090509005
2,5, 1, 5, 0,21, 0.00,60.00,Thursday
7,783557.816808934
129,391595.04313970055
203,1988005.5831176708
204,0.0