Program Version,EnergyPlus, Version 9.6.0-4b123cf80f, YMD=2022.01.26 10:19
1,5,Environment Title[],Latitude[deg],Longitude[deg],Time Zone[],Elevation[m]
2,8,Day of Simulation[],Month[],Day of Month[],DST Indicator[1=yes 0=no],Hour[],StartMinute[],EndMinute[],DayType
3,5,Cumulative Day of Simulation[],Month[],Day of Month[],DST Indicator[1=yes 0=no],DayType  ! When Daily Report Variables Requested
4,2,Cumulative Days of Simulation[],Month[]  ! When Monthly Report Variables Requested
5,1,Cumulative Days of Simulation[] ! When Run Period Report Variables Requested
6,1,Calendar Year of Simulation[] ! When Annual Report Variables Requested
7,1,ZONE1_1_8B60EA5C,Zone People Total Heating Energy [J] !Hourly
8,1,ZONE2_2_BD801F21,Zone People Total Heating Energy [J] !Hourly
167,1,ZONE1_1_8B60EA5C,Zone Lights Electricity Energy [J] !Hourly
168,1,ZONE2_2_BD801F21,Zone Lights Electricity Energy [J] !Hourly
267,1,ZONE1_1_8B60EA5C,Zone Electric Equipment Electricity Energy [J] !Hourly
268,1,ZONE2_2_BD801F21,Zone Electric Equipment Electricity Energy [J] !Hourly
269,1,ZONE1_1_8B60EA5C,Zone Windows Total Transmitted Solar Radiation Energy [J] !Hourly
270,1,ZONE2_2_BD801F21,Zone Windows Total Transmitted Solar Radiation Energy [J] !Hourly
271,1,ZONE1_1_8B60EA5C,Zone Infiltration Total Heat Loss Energy [J] !Hourly
272,1,ZONE1_1_8B60EA5C,Zone Infiltration Total Heat Gain Energy [J] !Hourly
273,1,ZONE2_2_BD801F21,Zone Infiltration Total Heat Loss Energy [J] !Hourly
274,1,ZONE2_2_BD801F21,Zone Infiltration Total Heat Gain Energy [J] !Hourly
717,1,ZONE1_1_8B60EA5C IDEAL LOADS AIR SYSTEM,Zone Ideal Loads Supply Air Total Heating Energy [J] !Hourly
730,1,ZONE1_1_8B60EA5C IDEAL LOADS AIR SYSTEM,Zone Ideal Loads Supply Air Total Cooling Energy [J] !Hourly
779,1,ZONE1_1_8B60EA5C IDEAL LOADS AIR SYSTEM,Zone Ideal Loads Zone Total Heating Energy [J] !Hourly
780,1,ZONE1_1_8B60EA5C IDEAL LOADS AIR SYSTEM,Zone Ideal Loads Zone Total Cooling Energy [J] !Hourly
781,1,ZONE2_2_BD801F21 IDEAL LOADS AIR SYSTEM,Zone Ideal Loads Supply Air Total Heating Energy [J] !Hourly
782,1,ZONE2_2_BD801F21 IDEAL LOADS AIR SYSTEM,Zone Ideal Loads Supply Air Total Cooling Energy [J] !Hourly
783,1,ZONE2_2_BD801F21 IDEAL LOADS AIR SYSTEM,Zone Ideal Loads Zone Total Heating Energy [J] !Hourly
784,1,ZONE2_2_BD801F21 IDEAL LOADS AIR SYSTEM,Zone Ideal Loads Zone Total Cooling Energy [J] !Hourly
883,1,2019::MIDRISEAPARTMENT::APARTMENT_SHW..ZONE2_2_BD801F21,Water Use Equipment Heating Energy [J] !Hourly
922,1,2019::MIDRISEAPARTMENT::APARTMENT_SHW..ZONE1_1_8B60EA5C,Water Use Equipment Heating Energy [J] !Hourly
End of Data Dictionary
1,RUN PERIOD 1,  47.47,-122.32,  -8.00, 122.00
2,1, 1, 1, 0, 1, 0.00,60.00,Sunday
7,270192.3506237704
8,270192.35062377114
167,7342.407221081898
168,7342.407221081916
267,301551.40867515234
268,301551.4086751531
269,0.0
270,0.0
271,3136916.731948019
272,0.0
273,4332078.56447325
274,0.0
717,6900163.257672704
730,0.0
779,6319419.576242267
780,70116.49076901336
781,8154922.740282752
782,0.0
783,7573923.390195834
784,57510.57266714656
883,62497.128429918965
922,62497.128429918965
2,1, 1, 1, 0, 2, 0.00,60.00,Sunday
7,270192.3506237704
8,270192.35062377114
167,7342.407221081898
168,7342.407221081916
267,274746.83901513874
268,274746.8390151395
269,0.0
270,0.0
271,3028055.5879790685
272,0.0
273,4202226.726186993
274,0.0
717,7110488.588686501
730,0.0
779,6512572.619082229
780,26606.149689905305
781,8416787.874808883
782,0.0
783,7819110.078181139
784,16383.554445792015
883,31248.564214959482
922,31248.564214959482
2,1, 1, 1, 0, 3, 0.00,60.00,Sunday
7,270192.3506237704
8,270192.35062377114
167,7342.407221081898
168,7342.407221081916
267,261344.55418513203
268,261344.55418513276
269,0.0
270,0.0
271,2957691.6399457245
272,0.0
273,4142522.3354470776
274,0.0
717,7108439.344875534
730,0.0
779,6509968.404662892
780,8270.709993967012
781,8433336.407307304
782,0.0
783,7834784.128948566
784,4260.277028373093
883,7812.141053739871
922,7812.141053739871
2,1, 1, 1, 0, 4, 0.00,60.00,Sunday
7,270192.3506237704
8,270192.35062377114
167,7342.407221081898
168,7342.407221081916
267,254643.4117701286
268,254643.41177012937
269,0.0
270,0.0
271,2867372.666281852
272,0.0
273,4026078.873356305
274,0.0
717,6973111.386483485
730,0.0
779,6387295.675758241
780,2217.032585306106
781,8288525.588886676
782,0.0
783,7703527.349886517
784,859.1155895705924
883,7812.141053739871
922,7812.141053739871
2,1, 1, 1, 0, 5, 0.00,60.00,Sunday
7,270192.3506237704
8,270192.35062377114
167,22027.22101439564
168,22027.2210143957
267,254643.4117701286
268,254643.41177012937
269,0.0
270,0.0
271,2758612.56281718
272,0.0
273,3879552.7180455904
274,0.0
717,6733858.391115431
730,0.0
779,6168156.199071937
780,0.0
781,8017401.5432344545
782,0.0
783,7452720.549375953
784,0.0
883,31248.564214959482
922,31248.564214959482
2,1, 1, 1, 0, 6, 0.00,60.00,Sunday
7,270192.3506237704
8,270192.35062377114
167,47725.64596375726
168,47725.645963757386
267,288149.1238451456
268,288149.1238451463
269,0.0
270,0.0
271,2572771.3168204543
272,0.0
273,3611814.287686976
274,0.0
717,6232658.617480134
730,0.0
779,5709156.166830459
780,3574.1541501788106
781,7438474.278790863
782,0.0
783,6915401.366976993
784,2468.816267297234
883,210927.80845097653
922,210927.80845097653
2,1, 1, 1, 0, 7, 0.00,60.00,Sunday
7,270192.3506237704
8,270192.35062377114
167,51396.84924987318
168,51396.849249873325
267,361861.6904101828
268,361861.6904101838
269,0.0
270,0.0
271,2688183.9720176393
272,0.0
273,3740858.583982177
274,0.0
717,6013207.780100854
730,0.0
779,5491556.981558688
780,22334.815409696013
781,7216462.785900011
782,0.0
783,6694697.905484481
784,16709.93055929366
883,734341.2590515477
922,734341.2590515477
2,1, 1, 1, 0, 8, 0.00,60.00,Sunday
7,229663.49803020476
8,229663.49803020543
167,47725.64596375726
168,47725.645963757386
267,435574.25697522
268,435574.2569752213
269,0.0
270,0.0
271,2975406.3956706906
272,0.0
273,4081247.7163437326
274,0.0
717,6169926.868764026
730,0.0
779,5632673.872386787
780,72401.27800513469
781,7414481.415768549
782,0.0
783,6876923.383200314
784,57361.259824166424
883,781134.212423296
922,781134.212423296
2,1, 1, 1, 0, 9, 0.00,60.00,Sunday
7,105375.01674327048
8,105375.01674327071
167,8593.473494751926
168,7949.155670597439
267,442275.39939022344
268,442275.3993902247
269,296049.8731479038
270,337823.07029149914
271,2945329.799665424
272,0.0
273,3999870.5066363914
274,0.0
717,5861045.021802139
730,0.0
779,5347472.385192429
780,98046.75370464138
781,7046977.309795967
782,0.0
783,6532963.64525698
784,76301.56978722193
883,749965.5411590276
922,749965.5411590276
2,1, 1, 1, 0,10, 0.00,60.00,Sunday
7,67548.0876559426
8,67548.08765594279
167,4405.4441379941245
168,4405.444137994135
267,448976.5418052269
268,448976.54180522804
269,953537.8586073274
270,1098930.5137132264
271,2800066.080220767
272,0.0
273,3796032.0982946386
274,0.0
717,5130598.595611954
730,0.0
779,4633191.887028242
780,84266.6894954268
781,6188094.965962608
782,0.0
783,5690224.979441972
784,61424.453721763115
883,656219.8485141491
922,656219.8485141491
2,1, 1, 1, 0,11, 0.00,60.00,Sunday
7,67548.0876559426
8,67548.08765594279
167,4405.4441379941245
168,4405.444137994135
267,462378.8266352336
268,462378.8266352349
269,1326101.1175282605
270,1531150.7818273702
271,2668913.390264007
272,0.0
273,3627310.897351753
274,0.0
717,4483338.248710214
730,0.0
779,4008945.8831237564
780,81544.72569301375
781,5374200.316129027
782,0.0
783,4899400.767942201
784,61468.30888318159
883,593722.7200842303
922,593722.7200842303
2,1, 1, 1, 0,12, 0.00,60.00,Sunday
7,67548.0876559426
8,67548.08765594279
167,4405.4441379941245
168,4405.444137994135
267,469079.9690502368
268,469079.9690502382
269,913406.9932566547
270,1058932.9451311312
271,2489326.352264154
272,0.0
273,3383577.398632408
274,0.0
717,4460302.760630698
730,0.0
779,4012771.7678420506
780,73701.12749346154
781,5272671.124442482
782,0.0
783,4824752.399118862
784,54583.709470667185
883,476540.60427813197
922,476540.60427813197
2,1, 1, 1, 0,13, 0.00,60.00,Sunday
7,67548.0876559426
8,67548.08765594279
167,4405.4441379941245
168,4405.444137994135
267,462378.8266352336
268,462378.8266352349
269,1065242.0131250354
270,1236164.20187583
271,2704847.2212701384
272,0.0
273,3714039.908657241
274,0.0
717,5023553.199447764
730,0.0
779,4513776.009176648
780,49455.68459641391
781,5916387.262712505
782,0.0
783,5406301.408314899
784,34236.78857256887
883,414043.47584821313
922,414043.47584821313
2,1, 1, 1, 0,14, 0.00,60.00,Sunday
7,67548.0876559426
8,67548.08765594279
167,4405.4441379941245
168,4405.444137994135
267,442275.39939022344
268,442275.3993902247
269,1414902.7163447079
270,1624388.7924825763
271,2930239.6261205357
272,0.0
273,4037533.0725021455
274,0.0
717,5260869.561121105
730,0.0
779,4714693.853963471
780,61128.252041847954
781,6178863.003209467
782,0.0
783,5632418.7028348
784,47885.07963568349
883,367170.62952577387
922,367170.62952577387
2,1, 1, 1, 0,15, 0.00,60.00,Sunday
7,67548.0876559426
8,67548.08765594279
167,4405.4441379941245
168,4405.444137994135
267,435574.25697522
268,435574.2569752213
269,1031427.7235064306
270,1182133.4973775037
271,2845317.560811667
272,0.0
273,3919421.2223119005
274,0.0
717,5421172.312604992
730,0.0
779,4883962.414534642
780,52675.37985522108
781,6315420.124679758
782,0.0
783,5777933.5878342325
784,39035.51569788938
883,320297.78320333466
922,320297.78320333466
2,1, 1, 1, 0,16, 0.00,60.00,Sunday
7,67548.0876559426
8,67548.08765594279
167,7709.527484808484
168,7709.5274848085055
267,455677.68422023015
268,455677.6842202315
269,511780.048619929
270,584816.1163841347
271,2885646.5213367636
272,0.0
273,3988632.2125675655
274,0.0
717,5916066.754767298
730,0.0
779,5366157.237888183
780,44585.49416183923
781,6864712.610678336
782,0.0
783,6314569.385960953
784,33062.3692332812
883,367170.62952577387
922,367170.62952577387
2,1, 1, 1, 0,17, 0.00,60.00,Sunday
7,81057.70518713111
8,81057.70518713133
167,42938.561928182404
168,42196.8029749571
267,536091.3932002708
268,536091.3932002722
269,65781.59798292065
270,74899.31846507036
271,2916698.8476798977
272,0.0
273,4035697.2663711915
274,0.0
717,6317248.871002258
730,0.0
779,5758110.450139752
780,37817.901704402815
781,7342987.415542828
782,0.0
783,6783626.05781757
784,26825.847095845987
883,429667.75795569294
922,429667.75795569294
2,1, 1, 1, 0,18, 0.00,60.00,Sunday
7,140500.02232436062
8,140500.02232436097
167,73424.07026426883
168,73424.07026426902
267,670114.2415003384
268,670114.2415003403
269,0.0
270,0.0
271,2985197.8587616393
272,0.0
273,4122500.6405326426
274,0.0
717,6220617.319014085
730,0.0
779,5661632.883542882
780,50080.93232603583
781,7287238.18546872
782,0.0
783,6728016.477479461
784,38382.04842059408
883,570286.2969230106
922,570286.2969230106
2,1, 1, 1, 0,19, 0.00,60.00,Sunday
7,235067.3450426802
8,235067.34504268086
167,99122.49521363043
168,99122.4952136307
267,670114.2415003384
268,670114.2415003403
269,0.0
270,0.0
271,3115327.524935317
272,0.0
273,4270037.369194046
274,0.0
717,6148300.044020885
730,0.0
779,5590064.106061266
780,79617.61533346794
781,7243561.772353026
782,0.0
783,6684989.94586451
784,63056.40151518591
883,671844.1306216287
922,671844.1306216287
2,1, 1, 1, 0,20, 0.00,60.00,Sunday
7,235067.3450426802
8,235067.34504268086
167,117478.51294191016
168,117478.51294191048
267,623206.2445953147
268,623206.2445953165
269,0.0
270,0.0
271,3142700.3289197017
272,0.0
273,4284531.386035726
274,0.0
717,6235165.812487777
730,0.0
779,5677181.746272901
780,86704.30021472793
781,7354351.421933182
782,0.0
783,6795942.648847062
784,65763.83723471212
883,640595.5664066693
922,640595.5664066693
2,1, 1, 1, 0,21, 0.00,60.00,Sunday
7,235067.3450426802
8,235067.34504268086
167,117478.51294191016
168,117478.51294191048
267,596401.6749353013
268,596401.6749353028
269,0.0
270,0.0
271,3164214.138093192
272,0.0
273,4319733.09197392
274,0.0
717,6441730.518674091
730,0.0
779,5873091.995865129
780,78651.54904134029
781,7614262.118365286
782,0.0
783,7045206.100299259
784,58066.65963446535
883,585910.5790304902
922,585910.5790304902
2,1, 1, 1, 0,22, 0.00,60.00,Sunday
7,270192.3506237704
8,270192.35062377114
167,80766.47748535073
168,80766.47748535093
267,569597.1052752876
268,569597.1052752893
269,0.0
270,0.0
271,3124457.8910528417
272,0.0
273,4274307.873102471
274,0.0
717,6492559.838758502
730,0.0
779,5926832.049137648
780,74032.54898098599
781,7682984.960661568
782,0.0
783,7116871.188669768
784,55001.42399352899
883,476540.60427813197
922,476540.60427813197
2,1, 1, 1, 0,23, 0.00,60.00,Sunday
7,270192.3506237704
8,270192.35062377114
167,44054.44202879128
168,44054.4420287914
267,475781.11146524025
268,475781.11146524164
269,0.0
270,0.0
271,3048530.570973204
272,0.0
273,4180492.226197304
274,0.0
717,6492598.616780538
730,0.0
779,5934198.861749865
780,65238.97082764597
781,7681165.219433613
782,0.0
783,7122417.153406881
784,48065.25876333221
883,414043.47584821313
922,414043.47584821313
2,1, 1, 1, 0,24, 0.00,60.00,Sunday
7,270192.3506237704
8,270192.35062377114
167,18356.01772827972
168,18356.017728279767
267,388666.26007019624
268,388666.2600701974
269,0.0
270,0.0
271,2987398.3855807837
272,0.0
273,4113409.2676007836
274,0.0
717,6580999.307813641
730,0.0
779,6022358.183627915
780,52956.64874312393
781,7780390.69311286
782,0.0
783,7221453.153339958
784,38341.67533395553
883,226552.0905584562
922,226552.0905584562
2,2, 1, 2, 0, 1, 0.00,60.00,Monday
7,270192.3506237704
8,270192.35062377114
167,7342.407221081898
168,7342.407221081916
267,301551.40867515234
268,301551.4086751531
269,0.0
270,0.0
271,2855341.6581149413
272,0.0
273,3953748.5321090883
274,0.0
717,6539730.562881612
730,0.0
779,5993472.084566027
780,40041.659326049055
781,7720963.595675796
782,0.0
783,7174487.123374485
784,29293.316652410886
883,62511.84854822799
922,62511.84854822799
2,2, 1, 2, 0, 2, 0.00,60.00,Monday
7,270192.3506237704
8,270192.35062377114
167,7342.407221081898
168,7342.407221081916
267,274746.83901513874
268,274746.8390151395
269,0.0
270,0.0
271,2782935.44102646
272,0.0
273,3879412.4322438776
274,0.0
717,6594454.566200394
730,0.0
779,6044131.405046185
780,17584.625853703757
781,7797033.352795292
782,0.0
783,7246572.832008065
784,10812.015131146654
883,31255.924274113993
922,31255.924274113993
2,2, 1, 2, 0, 3, 0.00,60.00,Monday
7,270192.3506237704
8,270192.35062377114
167,7342.407221081898
168,7342.407221081916
267,261344.55418513203
268,261344.55418513276
269,0.0
270,0.0
271,2803623.6274223514
272,0.0
273,3926863.0379764433
274,0.0
717,6714981.529794425
730,0.0
779,6155494.293995414
780,10858.219927814343
781,7951389.759766656
782,0.0
783,7391829.82801708
784,7273.896327897955
883,7813.981068528497
922,7813.981068528497
2,2, 1, 2, 0, 4, 0.00,60.00,Monday
7,270192.3506237704
8,270192.35062377114
167,7342.407221081898
168,7342.407221081916
267,254643.4117701286
268,254643.41177012937
269,0.0
270,0.0
271,2730373.24843094
272,0.0
273,3828838.196098691
274,0.0
717,6588032.3867357215
730,0.0
779,6041040.862163769
780,8919.27453768476
781,7809914.665176457
782,0.0
783,7262868.396592125
784,6220.083537445407
883,7813.981068528498
922,7813.981068528498
2,2, 1, 2, 0, 5, 0.00,60.00,Monday
7,270192.3506237704
8,270192.35062377114
167,22027.22101439564
168,22027.2210143957
267,254643.4117701286
268,254643.41177012937
269,0.0
270,0.0
271,2759021.243040111
272,0.0
273,3868775.9283967144
274,0.0
717,6587147.736211764
730,0.0
779,6036620.321505395
780,11331.70745182706
781,7826456.673576228
782,0.0
783,7275877.116488449
784,8760.791647170709
883,31255.92427411399
922,31255.92427411399
2,2, 1, 2, 0, 6, 0.00,60.00,Monday
7,270192.3506237704
8,270192.35062377114
167,47725.64596375726
168,47725.645963757386
267,288149.1238451456
268,288149.1238451463
269,0.0
270,0.0
271,2848649.908625791
272,0.0
273,3984109.4508375707
274,0.0
717,6630769.69756908
730,0.0
779,6071431.584966793
780,18479.171547258284
781,7900787.707243606
782,0.0
783,7341372.29189462
784,14667.706710967332
883,210977.48885026947
922,210977.48885026947
2,2, 1, 2, 0, 7, 0.00,60.00,Monday
7,270192.3506237704
8,270192.35062377114
167,51396.84924987318
168,51396.849249873325
267,361861.6904101828
268,361861.6904101838
269,0.0
270,0.0
271,3004438.3600311643
272,0.0
273,4163742.8566888645
274,0.0
717,6492658.245685154
730,0.0
779,5933866.893633986
780,45437.57475398956
781,7771902.636332065
782,0.0
783,7212936.964258456
784,36842.60673300891
883,734514.2204416787
922,734514.2204416787
2,2, 1, 2, 0, 8, 0.00,60.00,Monday
7,229663.49803020476
8,229663.49803020543
167,47725.64596375726
168,47725.645963757386
267,435574.25697522
268,435574.2569752213
269,0.0
270,0.0
271,3088598.320921958
272,0.0
273,4222677.739207805
274,0.0
717,6267537.177916413
730,0.0
779,5722004.491900496
780,81111.74763407385
781,7527839.829510021
782,0.0
783,6981945.27850046
784,63269.7464418196
883,781318.1950847552
922,781318.1950847552
2,2, 1, 2, 0, 9, 0.00,60.00,Monday
7,105375.01674327048
8,105375.01674327071
167,7718.1896277241285
168,7213.325671636244
267,442275.39939022344
268,442275.3993902247
269,297969.81956732646
270,345655.19931963924
271,3068229.3369160295
272,0.0
273,4172167.811468732
274,0.0
717,6070595.941018538
730,0.0
779,5534196.409927265
780,89892.48262308983
781,7285349.452372788
782,0.0
783,6748504.758825137
784,67943.44301720225
883,750142.1825787358
922,750142.1825787358
2,2, 1, 2, 0,10, 0.00,60.00,Monday
7,67548.0876559426
8,67548.08765594279
167,4405.4441379941245
168,4405.444137994135
267,448976.5418052269
268,448976.54180522804
269,1009254.0496578339
270,1165949.5927675706
271,3039759.4287331654
272,0.0
273,4135063.3843990676
274,0.0
717,5555321.423590461
730,0.0
779,5018830.852193575
780,85403.6780416965
781,6679430.921956239
782,0.0
783,6142494.600187455
784,63425.65085860834
883,656374.4097563938
922,656374.4097563938
2,2, 1, 2, 0,11, 0.00,60.00,Monday
7,67548.0876559426
8,67548.08765594279
167,4405.4441379941245
168,4405.444137994135
267,462378.8266352336
268,462378.8266352349
269,1631751.488588235
270,1874559.6828924464
271,2884647.0369140427
272,0.0
273,3920980.797697041
274,0.0
717,4712909.906139063
730,0.0
779,4210260.588147854
780,92302.38798944028
781,5659487.965465027
782,0.0
783,5156411.9019524455
784,71261.40796943988
883,593862.5612081658
922,593862.5612081658
2,2, 1, 2, 0,12, 0.00,60.00,Monday
7,67548.0876559426
8,67548.08765594279
167,4405.4441379941245
168,4405.444137994135
267,469079.9690502368
268,469079.9690502382
269,1911557.8461294593
270,2193762.819402834
271,2677110.212409394
272,0.0
273,3629530.923051965
274,0.0
717,4036450.9513018243
730,0.0
779,3570596.1827054494
780,91540.82215717508
781,4817233.849275182
782,0.0
783,4350945.038316163
784,70140.06638396364
883,476652.84518023836
922,476652.84518023836
2,2, 1, 2, 0,13, 0.00,60.00,Monday
7,67548.0876559426
8,67548.08765594279
167,4405.4441379941245
168,4405.444137994135
267,462378.8266352336
268,462378.8266352349
269,1177558.6843609763
270,1373276.4710582923
271,2553722.1708398326
272,0.0
273,3495963.479640153
274,0.0
717,4631212.592228706
730,0.0
779,4150133.4708709554
780,42373.64691485486
781,5404234.335145553
782,0.0
783,4922816.790069214
784,25687.433833619933
883,414140.9966320103
922,414140.9966320103
2,2, 1, 2, 0,14, 0.00,60.00,Monday
7,67548.0876559426
8,67548.08765594279
167,4405.4441379941245
168,4405.444137994135
267,442275.39939022344
268,442275.3993902247
269,1106941.6032718986
270,1286370.0630987627
271,2592965.45293062
272,0.0
273,3578669.600211215
274,0.0
717,4810148.366193326
730,0.0
779,4323064.935771553
780,45928.974777413714
781,5577526.276632907
782,0.0
783,5090219.842487128
784,34933.62352902259
883,367257.1102208393
922,367257.1102208393
2,2, 1, 2, 0,15, 0.00,60.00,Monday
7,67548.0876559426
8,67548.08765594279
167,4405.4441379941245
168,4405.444137994135
267,435574.25697522
268,435574.2569752213
269,1121423.1753640429
270,1282952.283005062
271,2559345.7674186374
272,0.0
273,3533826.639909271
274,0.0
717,4840095.062581501
730,0.0
779,4349793.346946901
780,36950.10410822092
781,5600931.016757652
782,0.0
783,5110402.144201772
784,25749.976625469757
883,320373.2238096684
922,320373.2238096684
2,2, 1, 2, 0,16, 0.00,60.00,Monday
7,67548.0876559426
8,67548.08765594279
167,7709.527484808484
168,7709.5274848085055
267,455677.68422023015
268,455677.6842202315
269,718764.9703505143
270,806188.3656895045
271,2623734.778412207
272,0.0
273,3629251.270487105
274,0.0
717,5203326.986215033
730,0.0
779,4705700.732856349
780,43684.95101419285
781,6000793.959094717
782,0.0
783,5502970.166040119
784,33945.12109974744
883,367257.1102208393
922,367257.1102208393
2,2, 1, 2, 0,17, 0.00,60.00,Monday
7,81057.70518713111
8,81057.70518713133
167,42041.240875022035
168,41632.87777840058
267,536091.3932002708
268,536091.3932002722
269,89885.35580015302
270,100933.6745342272
271,2529284.4515026035
272,0.0
273,3484067.615747418
274,0.0
717,5355624.661554315
730,0.0
779,4881166.498743874
780,48487.86697485112
781,6149951.902563071
782,0.0
783,5675255.583203554
784,36745.39531487058
883,429768.95876906737
922,429768.95876906737
2,2, 1, 2, 0,18, 0.00,60.00,Monday
7,140500.02232436062
8,140500.02232436097
167,73424.07026426883
168,73424.07026426902
267,670114.2415003384
268,670114.2415003403
269,0.0
270,0.0
271,2442767.8694095537
272,0.0
273,3349802.785963567
274,0.0
717,4990250.215015813
730,0.0
779,4542890.831727483
780,57866.265170142244
781,5757072.2327456605
782,0.0
783,5309442.450932753
784,44534.08083987401
883,570420.6180025805
922,570420.6180025805
2,2, 1, 2, 0,19, 0.00,60.00,Monday
7,235067.3450426802
8,235067.34504268086
167,99122.49521363043
168,99122.4952136307
267,670114.2415003384
268,670114.2415003403
269,0.0
270,0.0
271,2520264.338442762
272,0.0
273,3435475.736429131
274,0.0
717,4915506.245481022
730,0.0
779,4465413.556661506
780,70973.26387258094
781,5704128.928872883
782,0.0
783,5253694.936684028
784,54145.06764006114
883,672002.3718934506
922,672002.3718934506
2,2, 1, 2, 0,20, 0.00,60.00,Monday
7,235067.3450426802
8,235067.34504268086
167,117478.51294191016
168,117478.51294191048
267,623206.2445953147
268,623206.2445953165
269,0.0
270,0.0
271,2632173.8428792055
272,0.0
273,3580102.807039284
274,0.0
717,5158285.858351092
730,0.0
779,4688145.038641607
780,74523.11151839767
781,6003102.874012127
782,0.0
783,5532572.22223486
784,55302.17459337969
883,640746.4476193368
922,640746.4476193368
2,2, 1, 2, 0,21, 0.00,60.00,Monday
7,235067.3450426802
8,235067.34504268086
167,117478.51294191016
168,117478.51294191048
267,596401.6749353013
268,596401.6749353028
269,0.0
270,0.0
271,2759938.773396759
272,0.0
273,3765285.8986328123
274,0.0
717,5525653.554330647
730,0.0
779,5023208.381941879
780,67462.1600492253
781,6456047.299635278
782,0.0
783,5953222.9034763165
784,48764.272497664846
883,586048.5801396373
922,586048.5801396373
2,2, 1, 2, 0,22, 0.00,60.00,Monday
7,270192.3506237704
8,270192.35062377114
167,80766.47748535073
168,80766.47748535093
267,569597.1052752876
268,569597.1052752893
269,0.0
270,0.0
271,2878441.47442479
272,0.0
273,3939863.6944788196
274,0.0
717,5866201.752012309
730,0.0
779,5336736.540047977
780,66700.12464819028
781,6871544.801837969
782,0.0
783,6341726.2319169855
784,49277.5687373808
883,476652.84518023836
922,476652.84518023836
2,2, 1, 2, 0,23, 0.00,60.00,Monday
7,270192.3506237704
8,270192.35062377114
167,44054.44202879128
168,44054.4420287914
267,475781.11146524025
268,475781.11146524164
269,0.0
270,0.0
271,2886319.426824477
272,0.0
273,3959252.967814885
274,0.0
717,6063727.039404065
730,0.0
779,5526684.590337127
780,62311.611198027684
781,7102798.654403749
782,0.0
783,6565426.342681613
784,46047.50720680104
883,414140.9966320103
922,414140.9966320103
2,2, 1, 2, 0,24, 0.00,60.00,Monday
7,270192.3506237704
8,270192.35062377114
167,18356.01772827972
168,18356.017728279767
267,388666.26007019624
268,388666.2600701974
269,0.0
270,0.0
271,2800640.036689679
272,0.0
273,3849551.1449219636
274,0.0
717,6076177.901275424
730,0.0
779,5549656.206216786
780,59842.130879665274
781,7110636.8967026975
782,0.0
783,6583815.552175659
784,45067.70874321641
883,226605.45098732642
922,226605.45098732642
2,3, 1, 3, 0, 1, 0.00,60.00,Tuesday
7,270192.3506237704
8,270192.35062377114
167,7342.407221081898
168,7342.407221081916
267,301551.40867515234
268,301551.4086751531
269,0.0
270,0.0
271,2631351.1726498827
272,0.0
273,3641228.5327779283
274,0.0
717,6065955.202902068
730,0.0
779,5546292.615208373
780,31148.111330652813
781,7099901.169859222
782,0.0
783,6580015.255509981
784,20136.837721616623
883,62526.233862133864
922,62526.233862133864
2,3, 1, 3, 0, 2, 0.00,60.00,Tuesday
7,270192.3506237704
8,270192.35062377114
167,7342.407221081898
168,7342.407221081916
267,274746.83901513874
268,274746.8390151395
269,0.0
270,0.0
271,2355225.1556651536
272,0.0
273,3291201.0199405486
274,0.0
717,5690495.530207165
730,0.0
779,5205724.938385467
780,6529.033229807101
781,6665916.8602904305
782,0.0
783,6181318.988950996
784,1919.3757181672026
883,31263.116931066932
922,31263.116931066932
2,3, 1, 3, 0, 3, 0.00,60.00,Tuesday
7,270192.3506237704
8,270192.35062377114
167,7342.407221081898
168,7342.407221081916
267,261344.55418513203
268,261344.55418513276
269,0.0
270,0.0
271,2294687.331986754
272,0.0
273,3218084.752233151
274,0.0
717,5514612.773132445
730,0.0
779,5042662.02145315
780,8095.419823462817
781,6471220.555517901
782,0.0
783,5999222.069932396
784,5741.866906014457
883,7815.779232766733
922,7815.779232766733
2,3, 1, 3, 0, 4, 0.00,60.00,Tuesday
7,270192.3506237704
8,270192.35062377114
167,7342.407221081898
168,7342.407221081916
267,254643.4117701286
268,254643.41177012937
269,0.0
270,0.0
271,2284406.1885821074
272,0.0
273,3212244.9358819467
274,0.0
717,5658334.166485336
730,0.0
779,5183890.457341414
780,627.1250300037082
781,6641801.638965646
782,0.0
783,6168380.315564416
784,223.75684763906065
883,7815.779232766733
922,7815.779232766733
2,3, 1, 3, 0, 5, 0.00,60.00,Tuesday
7,270192.3506237704
8,270192.35062377114
167,22027.22101439564
168,22027.2210143957
267,254643.4117701286
268,254643.41177012937
269,0.0
270,0.0
271,2328941.705595658
272,0.0
273,3285588.165215532
274,0.0
717,5806107.723749542
730,0.0
779,5323809.49724581
780,0.0
781,6815234.123460967
782,0.0
783,6332374.875627955
784,0.0
883,31263.116931066932
922,31263.116931066932
2,3, 1, 3, 0, 6, 0.00,60.00,Tuesday
7,270192.3506237704
8,270192.35062377114
167,47725.64596375726
168,47725.645963757386
267,288149.1238451456
268,288149.1238451463
269,0.0
270,0.0
271,2457920.683027613
272,0.0
273,3450689.847082767
274,0.0
717,5838434.171409094
730,0.0
779,5339455.209895212
780,10146.53733300629
781,6871511.219586677
782,0.0
783,6372434.16577276
784,8976.652831631736
883,211026.03928470178
922,211026.03928470178
2,3, 1, 3, 0, 7, 0.00,60.00,Tuesday
7,270192.3506237704
8,270192.35062377114
167,51396.84924987318
168,51396.849249873325
267,361861.6904101828
268,361861.6904101838
269,0.0
270,0.0
271,2714540.224168539
272,0.0
273,3749632.5907207425
274,0.0
717,5687893.914648964
730,0.0
779,5189782.705823166
780,64100.00378926561
781,6732593.885890499
782,0.0
783,6234300.018528939
784,55093.89966173244
883,734683.2478800726
922,734683.2478800726
2,3, 1, 3, 0, 8, 0.00,60.00,Tuesday
7,229663.49803020476
8,229663.49803020543
167,47725.64596375726
168,47725.645963757386
267,435574.25697522
268,435574.2569752213
269,0.0
270,0.0
271,2918022.106744424
272,0.0
273,3963722.1576229413
274,0.0
717,5771604.89168946
730,0.0
779,5261821.591390097
780,98100.23549158555
781,6854222.296626523
782,0.0
783,6344009.732634901
784,76935.09533245233
883,781497.9931191709
922,781497.9931191709
2,3, 1, 3, 0, 9, 0.00,60.00,Tuesday
7,105375.01674327048
8,105375.01674327071
167,6608.166304318692
168,6608.166304318712
267,442275.39939022344
268,442275.3993902247
269,706148.9843072155
270,780885.9206951363
271,2981813.253309955
272,0.0
273,4036738.3145232312
274,0.0
717,5539445.185460106
730,0.0
779,5020930.093951152
780,103812.68860495638
781,6608092.029214098
782,0.0
783,6089080.799510577
784,79350.25533684921
883,750314.8063456062
922,750314.8063456062
2,3, 1, 3, 0,10, 0.00,60.00,Tuesday
7,67548.0876559426
8,67548.08765594279
167,4405.4441379941245
168,4405.444137994135
267,448976.5418052269
268,448976.54180522804
269,2100380.4424024057
270,2372599.933436718
271,2930382.4369816757
272,0.0
273,3971679.6559749832
274,0.0
717,4680424.090935049
730,0.0
779,4161763.309209817
780,92517.90742838578
781,5677067.191033755
782,0.0
783,5157919.991800099
784,68534.75924390815
883,656525.4555524053
922,656525.4555524053
2,3, 1, 3, 0,11, 0.00,60.00,Tuesday
7,67548.0876559426
8,67548.08765594279
167,4405.4441379941245
168,4405.444137994135
267,462378.8266352336
268,462378.8266352349
269,4316144.538542643
270,4740644.911880567
271,2802592.2635793863
272,0.0
273,3814367.946890279
274,0.0
717,2984262.6914812564
730,0.0
779,2477838.124409108
780,77067.49564121812
781,4004473.8731006947
782,0.0
783,3497630.199055398
784,56403.13946970982
883,593999.2216902716
922,593999.2216902716
2,3, 1, 3, 0,12, 0.00,60.00,Tuesday
7,67548.0876559426
8,67548.08765594279
167,4405.4441379941245
168,4405.444137994135
267,469079.9690502368
268,469079.9690502382
269,1686720.5969329777
270,1907386.8729606224
271,2682347.426503053
272,0.0
273,3667770.828781933
274,0.0
717,4296434.481378981
730,0.0
779,3798516.1655413006
780,59721.18903554368
781,4929895.603055433
782,0.0
783,4431624.2289169775
784,42313.407862807435
883,476762.53319877054
922,476762.53319877054
2,3, 1, 3, 0,13, 0.00,60.00,Tuesday
7,67548.0876559426
8,67548.08765594279
167,4405.4441379941245
168,4405.444137994135
267,462378.8266352336
268,462378.8266352349
269,2224874.687320146
270,2505277.843769233
271,2559199.7137769363
272,0.0
273,3509390.8315003132
274,0.0
717,3917847.0083560357
730,0.0
779,3443000.7295094742
780,60054.98462750434
781,4473790.765851269
782,0.0
783,3998648.8014507177
784,45476.00600421656
883,414236.29933663685
922,414236.29933663685
2,3, 1, 3, 0,14, 0.00,60.00,Tuesday
7,67548.0876559426
8,67548.08765594279
167,4405.4441379941245
168,4405.444137994135
267,442275.39939022344
268,442275.3993902247
269,2093760.777263632